 &FCI NORB=29,NELEC=8,MS2=0,
  ORBSYM=1,4,1,3,1,4,3,1,4,1,4,1,3,4,1,4,1,2,1,3,4,1,4,3,2,1,1,4,1,
  ISYM=1,
 &END
 7.5658969909809448e-01 1 1 1 1
 1.5689530721703943e-01 2 1 2 1
 6.8638316053753190e-01 2 2 1 1
 6.7412639872731051e-01 2 2 2 2
-2.1790838533159086e-02 3 1 1 1
-1.4925496309513463e-02 3 1 2 2
 1.2324876388564274e-01 3 1 3 1
-1.5878377295232705e-02 3 2 2 1
 3.9746158548340592e-02 3 2 3 2
 6.7683704755418661e-01 3 3 1 1
 6.0801373325830632e-01 3 3 2 2
 6.7786870199608634e-02 3 3 3 1
 7.2237966297901623e-01 3 3 3 3
 1.2687912196375822e-01 4 1 4 1
 3.0019051366969664e-02 4 2 4 2
 2.9247224108937948e-02 4 3 4 1
 4.1648773784156518e-02 4 3 4 3
 7.0587871077069364e-01 4 4 1 1
 6.2040551141945421e-01 4 4 2 2
 3.2940427852822377e-02 4 4 3 1
 6.5364049478627007e-01 4 4 3 3
 7.4098590823014288e-01 4 4 4 4
-6.5833163075188272e-02 5 1 1 1
-5.0978098547199098e-02 5 1 2 2
 1.0079988339670151e-02 5 1 3 1
-4.7388563878443708e-02 5 1 3 3
-5.6778642484689175e-02 5 1 4 4
 1.1638143807347782e-02 5 1 5 1
-5.5667464817481960e-03 5 2 2 1
-1.0138649445646029e-03 5 2 3 2
 4.9621631863096434e-03 5 2 5 2
 3.3926878991123878e-02 5 3 1 1
 2.3649713975404763e-02 5 3 2 2
 6.0387075219014985e-04 5 3 3 1
 3.2478989793646204e-02 5 3 3 3
 3.0328589927614835e-02 5 3 4 4
-6.2395837339020658e-03 5 3 5 1
 6.6531324042945379e-03 5 3 5 3
-7.5627909038618029e-03 5 4 4 1
 1.2404444784364335e-03 5 4 4 3
 5.0432387093385525e-03 5 4 5 4
 2.4853571784583309e-01 5 5 1 1
 2.4452031519687581e-01 5 5 2 2
-1.5253840774078334e-02 5 5 3 1
 2.3569951693616309e-01 5 5 3 3
 2.4052289974894919e-01 5 5 4 4
-3.6163635530869973e-03 5 5 5 1
-3.1396849323486291e-03 5 5 5 3
 2.0853923187129436e-01 5 5 5 5
 1.7151439209974962e-02 6 1 2 1
 1.5656052334505170e-03 6 1 3 2
-2.3385929753057247e-03 6 1 5 2
 2.7081819739724401e-03 6 1 6 1
 5.4346392846227873e-02 6 2 1 1
 4.8987802313550419e-02 6 2 2 2
 5.7389284111325350e-03 6 2 3 1
 4.8157664729187213e-02 6 2 3 3
 5.0063687179085360e-02 6 2 4 4
-7.5313259526254327e-03 6 2 5 1
 4.6104078362968239e-03 6 2 5 3
 1.9716042143861968e-03 6 2 5 5
 7.6693733541374782e-03 6 2 6 2
 6.4359137944453573e-03 6 3 2 1
 3.1735009629365579e-03 6 3 3 2
 1.2346676651826551e-03 6 3 5 2
 4.7833851032256765e-04 6 3 6 1
 1.4787406435872491e-03 6 3 6 3
 3.7570357910870688e-03 6 4 4 2
 8.1432435490766083e-04 6 4 6 4
-2.0277429081964761e-02 6 5 2 1
 5.9534021226704727e-03 6 5 3 2
-6.9659533033953978e-03 6 5 5 2
 5.6421010268769070e-04 6 5 6 1
-3.8337194154337735e-03 6 5 6 3
 3.9097727081484734e-02 6 5 6 5
 1.8828075213329176e-01 6 6 1 1
 1.9085793460686953e-01 6 6 2 2
-8.1759578792520386e-03 6 6 3 1
 1.8073141188143191e-01 6 6 3 3
 1.8187754874050510e-01 6 6 4 4
-9.0360291257686465e-04 6 6 5 1
-3.8510440195519144e-03 6 6 5 3
 1.7936451188845512e-01 6 6 5 5
-1.3304074732786997e-03 6 6 6 2
 1.8317315629720188e-01 6 6 6 6
 2.4843678084344383e-02 7 1 4 1
 6.1716359808826008e-03 7 1 4 3
-3.2236560111273760e-03 7 1 5 4
 5.6202719905131442e-03 7 1 7 1
 4.9233116884189691e-03 7 2 4 2
 1.1030125849834796e-03 7 2 6 4
 1.5440932294488116e-03 7 2 7 2
 7.0191728384282641e-03 7 3 4 1
 7.7449123969369187e-03 7 3 4 3
 2.5702600236583500e-04 7 3 5 4
 1.4124347086721884e-03 7 3 7 1
 2.3204415451792211e-03 7 3 7 3
 9.3938211566234817e-02 7 4 1 1
 7.5537477222630794e-02 7 4 2 2
 7.5874550547527673e-03 7 4 3 1
 8.3420119453351677e-02 7 4 3 3
 9.9993824785736818e-02 7 4 4 4
-1.2548586081095088e-02 7 4 5 1
 6.0056295487855970e-03 7 4 5 3
 6.8206015652060694e-03 7 4 5 5
 1.0057872622972534e-02 7 4 6 2
 3.8764222031004991e-03 7 4 6 6
 2.1862473755540689e-02 7 4 7 4
-2.1315338162655028e-02 7 5 4 1
-3.3356456877131025e-03 7 5 4 3
-8.1011422335094951e-03 7 5 5 4
-5.1230782034446807e-04 7 5 7 1
-1.3863444483233418e-03 7 5 7 3
 3.9638934980765435e-02 7 5 7 5
 2.8049260896620813e-03 7 6 4 2
-6.8679784098490395e-04 7 6 6 4
-8.9224609934426282e-04 7 6 7 2
 7.5134361924065404e-03 7 6 7 6
 2.3953562958125335e-01 7 7 1 1
 2.3211629871255346e-01 7 7 2 2
 3.0800661990591557e-03 7 7 3 1
 2.3513538696920669e-01 7 7 3 3
 2.4611503628716175e-01 7 7 4 4
-3.9240032996345070e-03 7 7 5 1
 3.1900080865905093e-03 7 7 5 3
 1.8713913155538547e-01 7 7 5 5
 5.0570882839782727e-03 7 7 6 2
 1.5374659238388766e-01 7 7 6 6
 4.7456724744351503e-03 7 7 7 4
 2.0652661140241815e-01 7 7 7 7
-9.4745578893846386e-03 8 1 1 1
-8.6352082466940039e-03 8 1 2 2
-2.0438495183653812e-02 8 1 3 1
-2.3275126226432744e-02 8 1 3 3
-1.7560299527406339e-02 8 1 4 4
-1.0594365855445841e-04 8 1 5 1
 3.0075878398133117e-04 8 1 5 3
-3.2501391059414292e-04 8 1 5 5
-2.1649652280618789e-03 8 1 6 2
-5.5837845219897445e-04 8 1 6 6
-4.0814200253446713e-03 8 1 7 4
-1.0969015946874058e-03 8 1 7 7
 4.4092944430555473e-03 8 1 8 1
 1.1496764112331303e-03 8 2 2 1
-5.9829937244460802e-03 8 2 3 2
 6.6890022897181172e-04 8 2 5 2
-5.1795895316603720e-04 8 2 6 1
-8.0109191633370063e-04 8 2 6 3
-9.2988418372119404e-04 8 2 6 5
 1.7322961655479323e-03 8 2 8 2
-7.7133740806295772e-02 8 3 1 1
-6.4503232440430963e-02 8 3 2 2
-1.4162463718665121e-02 8 3 3 1
-8.4797536809757143e-02 8 3 3 3
-7.4255082048958948e-02 8 3 4 4
 8.9399303446172900e-03 8 3 5 1
-4.8014748965686466e-03 8 3 5 3
-6.7791391571722735e-03 8 3 5 5
-8.4083518410564446e-03 8 3 6 2
-4.1643391503849991e-03 8 3 6 6
-1.5152775803070770e-02 8 3 7 4
-6.8029317949350300e-03 8 3 7 7
 5.2396244824881363e-03 8 3 8 1
 1.7257623612718778e-02 8 3 8 3
-5.8989598183607980e-03 8 4 4 1
-6.8544897809953353e-03 8 4 4 3
 1.2465458927285449e-03 8 4 5 4
-1.8209489416082729e-03 8 4 7 1
-2.1647558852307264e-03 8 4 7 3
-2.1945754888361355e-03 8 4 7 5
 2.5939713614842514e-03 8 4 8 4
-2.5648001754735540e-03 8 5 1 1
-1.6310306628557715e-03 8 5 2 2
 1.5714412193104536e-02 8 5 3 1
 6.2899867034091894e-03 8 5 3 3
 4.8153588461086949e-03 8 5 4 4
 9.6692069680814668e-05 8 5 5 1
 6.4541575707477220e-03 8 5 5 3
-1.9314188107156047e-02 8 5 5 5
 2.1017595421066217e-03 8 5 6 2
-1.5393058157823769e-02 8 5 6 6
-5.3022527522649085e-04 8 5 7 4
 5.1465242270607664e-03 8 5 7 7
 1.1691299174432929e-04 8 5 8 1
 1.3598128051311451e-03 8 5 8 3
 2.5277490033640201e-02 8 5 8 5
-3.0419962899992024e-04 8 6 2 1
-2.5882150193116196e-03 8 6 3 2
 9.0270494620155715e-04 8 6 5 2
-5.3278366330256175e-04 8 6 6 1
 6.2763257181890813e-04 8 6 6 3
-6.5329821770982724e-03 8 6 6 5
-4.3848524731120251e-04 8 6 8 2
 4.6062520642297482e-03 8 6 8 6
-8.4936892746384617e-03 8 7 4 1
-6.5334240363430635e-03 8 7 4 3
-2.6267134298359369e-03 8 7 5 4
-5.6263292245977000e-04 8 7 7 1
 1.1092169874640794e-03 8 7 7 3
 1.0202831699148679e-02 8 7 7 5
-2.5980832137956723e-03 8 7 8 4
 1.7285499797967754e-02 8 7 8 7
 2.3202073360023198e-01 8 8 1 1
 2.2599448754969514e-01 8 8 2 2
 1.8347791269162108e-02 8 8 3 1
 2.4739353004413234e-01 8 8 3 3
 2.3538725982183409e-01 8 8 4 4
-3.1942827998021721e-03 8 8 5 1
 8.1153835083911264e-03 8 8 5 3
 1.7010370025044702e-01 8 8 5 5
 6.4085573027730380e-03 8 8 6 2
 1.4184791304898736e-01 8 8 6 6
 7.3457911886571498e-03 8 8 7 4
 1.8203782582831926e-01 8 8 7 7
-1.4340133245807837e-03 8 8 8 1
-1.7403002289448355e-03 8 8 8 3
 2.0415989759782781e-02 8 8 8 5
 2.2709970750032010e-01 8 8 8 8
 1.6388730487251216e-02 9 1 2 1
-4.6300946409254529e-03 9 1 3 2
-1.7586729127747058e-03 9 1 5 2
 1.9518184678017898e-03 9 1 6 1
 2.0443905428565220e-04 9 1 6 3
-5.5105565573952643e-04 9 1 6 5
-7.0606703636573887e-05 9 1 8 2
 4.4280802666173342e-04 9 1 8 6
 2.6847236954446480e-03 9 1 9 1
 4.7448134261379962e-02 9 2 1 1
 4.3982343617629593e-02 9 2 2 2
-9.6500964388311419e-03 9 2 3 1
 3.4078125168174975e-02 9 2 3 3
 3.7312192412346672e-02 9 2 4 4
-6.4205377676288021e-03 9 2 5 1
 1.4570696641681112e-03 9 2 5 3
 6.1530919793496980e-03 9 2 5 5
 4.8911471885842925e-03 9 2 6 2
 2.9482463997284880e-03 9 2 6 6
 7.7286098664563528e-03 9 2 7 4
 2.7783734579374013e-03 9 2 7 7
-3.5125630909284408e-04 9 2 8 1
-6.4333242063808948e-03 9 2 8 3
-4.3927779485334311e-03 9 2 8 5
-6.5076185090981735e-04 9 2 8 8
 6.8252199143361489e-03 9 2 9 2
-1.1271463369104597e-02 9 3 2 1
 3.7493080227254246e-03 9 3 3 2
-8.8992133031503065e-04 9 3 5 2
-6.4816627976592173e-04 9 3 6 1
-3.7191072206947326e-04 9 3 6 3
 3.4290887442436232e-03 9 3 6 5
-1.2440001218749258e-03 9 3 8 2
 1.5374451101609916e-04 9 3 8 6
-6.0781057934627524e-04 9 3 9 1
 2.6816681231849240e-03 9 3 9 3
 2.0807377120738062e-03 9 4 4 2
 5.8974327201909084e-04 9 4 6 4
 9.4293841712589192e-04 9 4 7 2
-9.3180918636356837e-04 9 4 7 6
 1.1495383199403150e-03 9 4 9 4
-1.2984092379628409e-02 9 5 2 1
-5.6738417908522212e-04 9 5 3 2
-2.5993252642943260e-03 9 5 5 2
-6.6561543526655982e-04 9 5 6 1
-8.1491843649919224e-04 9 5 6 3
 7.4736203639177122e-03 9 5 6 5
-2.1051716400884812e-03 9 5 8 2
 4.5607742902610618e-03 9 5 8 6
 8.9730492535136999e-04 9 5 9 1
 3.5092082261133761e-03 9 5 9 3
 1.4681379170539625e-02 9 5 9 5
 2.4667454966932300e-02 9 6 1 1
 2.4801132315104054e-02 9 6 2 2
 3.5052356034325168e-03 9 6 3 1
 2.4205383791221006e-02 9 6 3 3
 2.5096302454408675e-02 9 6 4 4
-1.3110457781999670e-03 9 6 5 1
 2.6916019466429928e-03 9 6 5 3
 4.7086222532226486e-03 9 6 5 5
 1.7336219773355973e-03 9 6 6 2
-1.3386404480780489e-03 9 6 6 6
 1.6453172439628515e-03 9 6 7 4
 1.4217835216328589e-02 9 6 7 7
 6.3600829727748342e-05 9 6 8 1
-1.6254335254187982e-03 9 6 8 3
 1.0523164263065517e-02 9 6 8 5
 1.6484915124845293e-02 9 6 8 8
-1.0849025090915836e-03 9 6 9 2
 1.1139326514284162e-02 9 6 9 6
 3.0768098418743001e-03 9 7 4 2
-5.2816280821469882e-04 9 7 6 4
-9.7117468294834598e-04 9 7 7 2
 5.1033593490366824e-03 9 7 7 6
-2.0911056924638708e-03 9 7 9 4
 9.8286323670824568e-03 9 7 9 7
-1.5302293789867132e-02 9 8 2 1
-1.6140777987185939e-03 9 8 3 2
-4.9084268102527482e-03 9 8 5 2
-2.7931230935171556e-04 9 8 6 1
-1.8614240342165328e-03 9 8 6 3
 1.8365286168524519e-02 9 8 6 5
-2.8172640901618987e-03 9 8 8 2
 3.0077893423851101e-03 9 8 8 6
 1.8006187916818715e-03 9 8 9 1
 6.4202704448731752e-03 9 8 9 3
 1.9532344741902928e-02 9 8 9 5
 3.8035099099601587e-02 9 8 9 8
 2.2574464236245953e-01 9 9 1 1
 2.2639760270187603e-01 9 9 2 2
 1.1844386329071512e-02 9 9 3 1
 2.3098393138122997e-01 9 9 3 3
 2.2605923166242173e-01 9 9 4 4
-2.3608231743867218e-03 9 9 5 1
 7.1801569446177504e-03 9 9 5 3
 1.6976305113004908e-01 9 9 5 5
 4.3792222647357493e-03 9 9 6 2
 1.5255898118369426e-01 9 9 6 6
 5.8670365239092172e-03 9 9 7 4
 1.7760663527962670e-01 9 9 7 7
 1.1864648380040602e-04 9 9 8 1
-2.5818949252964900e-03 9 9 8 3
 2.2253716971292421e-02 9 9 8 5
 2.0328968468846370e-01 9 9 8 8
-3.4743200599125501e-03 9 9 9 2
 2.1699516511298755e-02 9 9 9 6
 2.1595789867018977e-01 9 9 9 9
-9.9595009671053558e-02 10 1 1 1
-6.3727971848726014e-02 10 1 2 2
 1.5843087210121440e-02 10 1 3 1
-6.9400259542469853e-02 10 1 3 3
-9.4963053486829374e-02 10 1 4 4
 2.0121799601084650e-02 10 1 5 1
-1.1240377717617529e-02 10 1 5 3
-4.8932091685749170e-03 10 1 5 5
-1.2026561124250308e-02 10 1 6 2
 5.3925445471160460e-04 10 1 6 6
-2.0880975661827141e-02 10 1 7 4
-7.6281636504934129e-03 10 1 7 7
-1.9087104370866387e-04 10 1 8 1
 1.3686672889588754e-02 10 1 8 3
 4.5358133166111848e-04 10 1 8 5
-4.3123997717368417e-03 10 1 8 8
-9.2033886234947834e-03 10 1 9 2
-1.4667642171198488e-03 10 1 9 6
-1.1989057583124962e-03 10 1 9 9
 3.9684068886765692e-02 10 1 10 1
 2.1476146527984366e-02 10 2 2 1
-1.0223840984996879e-02 10 2 3 2
 1.0256172947500856e-02 10 2 5 2
-2.0560549663990648e-03 10 2 6 1
 3.6038047798907548e-03 10 2 6 3
-1.5663797153670514e-02 10 2 6 5
 2.5282211859667270e-03 10 2 8 2
 1.4336491880425576e-03 10 2 8 6
-6.6600603898868405e-05 10 2 9 1
-4.2887931606113636e-03 10 2 9 3
-6.7944625187716405e-03 10 2 9 5
-1.0839532009139443e-02 10 2 9 8
 3.2000849040078425e-02 10 2 10 2
 5.6782689087176409e-02 10 3 1 1
 3.3456488536930735e-02 10 3 2 2
 4.4143940758405997e-03 10 3 3 1
 5.7891059754007816e-02 10 3 3 3
 5.2394481771765665e-02 10 3 4 4
-1.1582237504300106e-02 10 3 5 1
 1.1017294148251151e-02 10 3 5 3
-2.3008839367282289e-03 10 3 5 5
 8.3877532155322218e-03 10 3 6 2
-4.6316283249954425e-03 10 3 6 6
 1.1243001574335028e-02 10 3 7 4
 4.5656381656636246e-03 10 3 7 7
-7.1949270167772934e-04 10 3 8 1
-9.8180449515633227e-03 10 3 8 3
 5.8661072253414796e-03 10 3 8 5
 9.9944331526584489e-03 10 3 8 8
 2.4117615758027840e-03 10 3 9 2
 2.6089310174057662e-03 10 3 9 6
 7.3140077657218791e-03 10 3 9 9
-2.3104892241327363e-02 10 3 10 1
 2.1986509549668711e-02 10 3 10 3
-3.3812972834175919e-02 10 4 4 1
-1.8105814980133497e-03 10 4 4 3
 5.0545559224891238e-03 10 4 5 4
-7.7214992070150212e-03 10 4 7 1
-3.4690592313171712e-04 10 4 7 3
 2.9070122367337897e-03 10 4 7 5
 1.1448738153100064e-03 10 4 8 4
 9.8449297097563150e-04 10 4 8 7
 1.3730105337967771e-02 10 4 10 4
 9.0150867179465355e-02 10 5 1 1
 8.5546693943447424e-02 10 5 2 2
-1.1739732358650964e-02 10 5 3 1
 7.7503239860011064e-02 10 5 3 3
 7.8477109186028848e-02 10 5 4 4
-6.9636380617066583e-03 10 5 5 1
 2.6588947542198725e-03 10 5 5 3
 2.1741320568698930e-02 10 5 5 5
 4.3953746733817536e-03 10 5 6 2
 1.3022772448704700e-02 10 5 6 6
 1.1287910337923214e-02 10 5 7 4
 1.4785093390122834e-02 10 5 7 7
 2.9671520304362306e-04 10 5 8 1
-8.3428413917523321e-03 10 5 8 3
 6.3088757841437597e-04 10 5 8 5
 1.8931880037205834e-02 10 5 8 8
 5.6420916233011209e-03 10 5 9 2
 6.0086306088923125e-03 10 5 9 6
 2.1160557384291567e-02 10 5 9 9
-7.8810569226387059e-03 10 5 10 1
 2.3248810081344939e-03 10 5 10 3
 2.3875904934679858e-02 10 5 10 5
-1.1272920774581426e-02 10 6 2 1
 4.1621476268380812e-03 10 6 3 2
-1.4145875944630020e-03 10 6 5 2
-4.2550413900807127e-04 10 6 6 1
-9.1133187401951695e-04 10 6 6 3
-2.6404017865769409e-03 10 6 6 5
-3.9204944792014000e-04 10 6 8 2
 6.1478076041201926e-04 10 6 8 6
-1.0854715514931655e-03 10 6 9 1
 9.1940348429703049e-04 10 6 9 3
 1.8818544797428709e-03 10 6 9 5
-1.0179114609398863e-03 10 6 9 8
-6.7463181433192604e-03 10 6 10 2
 8.1769394294997147e-03 10 6 10 6
-6.8886124683569328e-03 10 7 4 1
 4.8236273114376626e-04 10 7 4 3
 3.0719607793712588e-03 10 7 5 4
-2.1448389927792091e-03 10 7 7 1
-2.0431484703082529e-04 10 7 7 3
-1.1482553329674140e-02 10 7 7 5
 9.6693281379070409e-04 10 7 8 4
-3.7858280325106784e-03 10 7 8 7
 1.9916611258066937e-03 10 7 10 4
 7.6346276612772341e-03 10 7 10 7
-6.3861850277322357e-03 10 8 1 1
-2.3669270911607278e-03 10 8 2 2
 4.0857633022437752e-03 10 8 3 1
-4.8705516359773470e-03 10 8 3 3
-4.1687296099834409e-03 10 8 4 4
 1.5962547501217100e-03 10 8 5 1
-7.3665518354524076e-04 10 8 5 3
 2.2658592258524833e-03 10 8 5 5
-5.7989591898466655e-04 10 8 6 2
 2.7557757254255914e-03 10 8 6 6
-8.7314344278047933e-04 10 8 7 4
-1.4813359073721081e-03 10 8 7 7
-2.3749644312872687e-04 10 8 8 1
 1.0814605454730645e-03 10 8 8 3
-2.3909116689433130e-03 10 8 8 5
-2.0259649859770425e-03 10 8 8 8
-1.3100038515260397e-03 10 8 9 2
-1.5720592172678155e-03 10 8 9 6
 3.9550703167396881e-05 10 8 9 9
 3.3086051707479046e-03 10 8 10 1
-1.0485260554789089e-03 10 8 10 3
-2.4782434223787975e-03 10 8 10 5
 3.5219185692383489e-03 10 8 10 8
-9.4836244055450328e-03 10 9 2 1
-1.0320519590458896e-03 10 9 3 2
-1.3631150586026282e-03 10 9 5 2
-6.5929539035479651e-04 10 9 6 1
-8.6244926920703811e-04 10 9 6 3
 7.1812429514330088e-03 10 9 6 5
-8.3993329206123648e-04 10 9 8 2
-8.3166525131226623e-04 10 9 8 6
 3.3740104578954943e-04 10 9 9 1
 1.4741611981856431e-03 10 9 9 3
 3.0383946769753350e-03 10 9 9 5
 4.7821758962681114e-03 10 9 9 8
-4.2213154867081146e-03 10 9 10 2
 5.9141874498121194e-04 10 9 10 6
 5.3809344427396266e-03 10 9 10 9
 3.8090156338927628e-01 10 10 1 1
 3.7597028860393761e-01 10 10 2 2
-3.3358824064949409e-02 10 10 3 1
 3.4553189414134355e-01 10 10 3 3
 3.5105573530554735e-01 10 10 4 4
-1.5154766839627541e-02 10 10 5 1
 2.6612705091771105e-03 10 10 5 3
 2.2457995594031127e-01 10 10 5 5
 9.5704303763272658e-03 10 10 6 2
 1.8905608103575888e-01 10 10 6 6
 2.5770653688917126e-02 10 10 7 4
 1.9913774451269198e-01 10 10 7 7
 6.2244687879490362e-04 10 10 8 1
-2.1506308807825513e-02 10 10 8 3
-1.3354577483439342e-02 10 10 8 5
 1.8740909656807558e-01 10 10 8 8
 1.5539693748727434e-02 10 10 9 2
 1.2970547489052908e-02 10 10 9 6
 1.9316792429537966e-01 10 10 9 9
-1.4539653532971375e-02 10 10 10 1
 3.9027448907597018e-04 10 10 10 3
 5.5736214142011020e-02 10 10 10 5
-4.8290714998039386e-05 10 10 10 8
 3.0492937683037119e-01 10 10 10 10
-3.1470317488978806e-02 11 1 2 1
-1.7630288463720604e-02 11 1 3 2
 7.0169118831339139e-03 11 1 5 2
-7.0328880520056612e-03 11 1 6 1
-1.4376512512165470e-03 11 1 6 3
-3.1988452490326279e-03 11 1 6 5
 2.9581406979944857e-03 11 1 8 2
 2.1480883286669437e-03 11 1 8 6
-2.5740516265039697e-03 11 1 9 1
 1.0983606132521475e-04 11 1 9 3
 2.1887243795784073e-03 11 1 9 5
 1.7749164471767866e-03 11 1 9 8
 1.2824112699470827e-02 11 1 10 2
-1.3387591419680676e-03 11 1 10 6
 2.4423634880710032e-03 11 1 10 9
 2.4575515087183499e-02 11 1 11 1
-1.0752756017344135e-01 11 2 1 1
-8.8608258258322400e-02 11 2 2 2
-4.1865370413008023e-02 11 2 3 1
-1.0917752907562878e-01 11 2 3 3
-1.1357091767222666e-01 11 2 4 4
 1.7602235275949795e-02 11 2 5 1
-1.3514431098934744e-02 11 2 5 3
 3.8239492854500196e-03 11 2 5 5
-1.9898879627511190e-02 11 2 6 2
 6.4808037958665049e-03 11 2 6 6
-2.4566427921487714e-02 11 2 7 4
-9.6354111158659626e-03 11 2 7 7
 8.8877129722218853e-03 11 2 8 1
 2.0588640049345262e-02 11 2 8 3
-1.0130164220253247e-02 11 2 8 5
-1.6843950706146686e-02 11 2 8 8
-6.7596202504395355e-03 11 2 9 2
-4.8457841644330667e-03 11 2 9 6
-1.2133929885215902e-02 11 2 9 9
 3.2906010659785906e-02 11 2 10 1
-2.8149576770498827e-02 11 2 10 3
-2.6018476988076411e-03 11 2 10 5
 5.0373846022809879e-04 11 2 10 8
 1.4581287595168534e-03 11 2 10 10
 6.6502000594173452e-02 11 2 11 2
-4.6434798255624174e-02 11 3 2 1
-3.9493459032040115e-03 11 3 3 2
-4.6514008044802897e-03 11 3 5 2
-3.5291052621338349e-03 11 3 6 1
-5.7157917153561090e-03 11 3 6 3
 1.3505579930883325e-02 11 3 6 5
 1.2677199001024982e-03 11 3 8 2
-8.3132048705839273e-04 11 3 8 6
-3.0158403186780931e-03 11 3 9 1
 4.8484881397967625e-03 11 3 9 3
 6.3625132717717121e-03 11 3 9 5
 1.0813768367200043e-02 11 3 9 8
-1.9960950604677341e-02 11 3 10 2
 5.6630455828394766e-03 11 3 10 6
 3.9243512419519788e-03 11 3 10 9
 5.5864250435965507e-03 11 3 11 1
 2.9161815993833981e-02 11 3 11 3
-1.1391590869190490e-02 11 4 4 2
-2.2701949221081586e-03 11 4 6 4
-2.9506394769707707e-03 11 4 7 2
 1.0584452114801336e-04 11 4 7 6
-8.1536110128410438e-04 11 4 9 4
-6.3590166315195319e-04 11 4 9 7
 7.8434767586724220e-03 11 4 11 4
 2.1972284942090296e-02 11 5 2 1
-8.7036488479541926e-03 11 5 3 2
 3.8800847433323989e-03 11 5 5 2
 4.0239907510112617e-04 11 5 6 1
 2.5960578256904558e-03 11 5 6 3
-1.0760919755719561e-02 11 5 6 5
 2.2322484697064309e-04 11 5 8 2
 2.9020552234959082e-03 11 5 8 6
 2.3301826249779497e-03 11 5 9 1
-1.8713663777581192e-03 11 5 9 3
-1.9857399652338662e-03 11 5 9 5
-2.0050732628593762e-03 11 5 9 8
 1.3381271596566539e-02 11 5 10 2
-8.1756335447889517e-03 11 5 10 6
-1.9195579478491487e-03 11 5 10 9
 3.5466525224356312e-03 11 5 11 1
-1.2054212583585659e-02 11 5 11 3
 1.4568930339979675e-02 11 5 11 5
-7.1243895564312140e-02 11 6 1 1
-7.1346596507283380e-02 11 6 2 2
 2.2011249759678938e-03 11 6 3 1
-6.5179473342065142e-02 11 6 3 3
-6.4800057171339479e-02 11 6 4 4
 3.9566371412574474e-03 11 6 5 1
-1.5836774080555662e-04 11 6 5 3
-2.5257548673469445e-02 11 6 5 5
-3.5193844854279205e-03 11 6 6 2
-1.2147306916577061e-02 11 6 6 6
-7.8747778736288701e-03 11 6 7 4
-1.9827163506725639e-02 11 6 7 7
 1.3987515034690800e-03 11 6 8 1
 6.8823013953233829e-03 11 6 8 3
 3.0898753101626757e-03 11 6 8 5
-1.8826920922584530e-02 11 6 8 8
-4.6918547089528223e-03 11 6 9 2
-4.9122607142109975e-03 11 6 9 6
-1.6678164670942075e-02 11 6 9 9
 3.7281882272666364e-03 11 6 10 1
 4.6992849204073595e-04 11 6 10 3
-1.7270855426484884e-02 11 6 10 5
 1.2922740469012359e-03 11 6 10 8
-4.7718159260296676e-02 11 6 10 10
 3.2431535362439021e-03 11 6 11 2
 1.7080030146743475e-02 11 6 11 6
-4.0725799496349989e-03 11 7 4 2
-2.4895961458563172e-04 11 7 6 4
-2.5713921640353949e-04 11 7 7 2
-5.6705112083928557e-04 11 7 7 6
-3.8974171246997259e-04 11 7 9 4
 3.8338539998287758e-04 11 7 9 7
 6.4235831356917127e-04 11 7 11 4
 2.2100457426078757e-03 11 7 11 7
 1.7348131357358308e-03 11 8 2 1
 3.3095205062732402e-03 11 8 3 2
-1.8482026786357086e-03 11 8 5 2
 9.7317935029996895e-04 11 8 6 1
-1.7503904640364231e-04 11 8 6 3
 4.7997017174157995e-03 11 8 6 5
-8.6802112079721193e-04 11 8 8 2
-6.8271102622078066e-04 11 8 8 6
 5.6092036399351146e-04 11 8 9 1
 1.5252110118390422e-03 11 8 9 3
 2.7195136724280479e-03 11 8 9 5
 6.4012979094181972e-03 11 8 9 8
-2.8963357159238279e-03 11 8 10 2
 8.9169399509890154e-04 11 8 10 6
 8.5055913502531111e-05 11 8 10 9
-3.0604311720590113e-03 11 8 11 1
 9.9609067394084306e-04 11 8 11 3
-2.7173587442248402e-03 11 8 11 5
 3.1260506319700692e-03 11 8 11 8
 2.5139542244319228e-03 11 9 1 1
 2.6548800092166674e-03 11 9 2 2
 1.3195277901995258e-03 11 9 3 1
 8.1075770419606358e-03 11 9 3 3
 3.0226599610499636e-03 11 9 4 4
 1.4594405115422213e-03 11 9 5 1
 8.2992621948099581e-04 11 9 5 3
 1.3818424432823777e-03 11 9 5 5
-3.2843843156830314e-04 11 9 6 2
-3.8360567519604427e-03 11 9 6 6
-1.3482820833790002e-03 11 9 7 4
 5.5584706997648236e-03 11 9 7 7
 5.3129216238621694e-04 11 9 8 1
 1.9904922801439948e-03 11 9 8 3
 4.8204258537734267e-03 11 9 8 5
 1.3091744132328260e-02 11 9 8 8
-1.0851975147481230e-03 11 9 9 2
 2.9946593459180965e-03 11 9 9 6
 1.0510996401911527e-02 11 9 9 9
 2.8273350618572808e-03 11 9 10 1
-4.7938304239777442e-05 11 9 10 3
 1.4336843955909616e-03 11 9 10 5
-1.0419786147982286e-03 11 9 10 8
 2.4382949741655570e-03 11 9 10 10
 1.8566702546071385e-03 11 9 11 2
-1.2104071188233714e-03 11 9 11 6
 4.8326476396897411e-03 11 9 11 9
 5.4607610189868691e-02 11 10 2 1
-2.3144637087985382e-02 11 10 3 2
 1.0995281550942700e-02 11 10 5 2
 3.6698777261822205e-04 11 10 6 1
 6.1221123068453676e-03 11 10 6 3
-3.7084057112613505e-02 11 10 6 5
 2.2683616826083032e-03 11 10 8 2
 5.9389024807945190e-03 11 10 8 6
 4.8804788552567688e-03 11 10 9 1
-6.1999470350478300e-03 11 10 9 3
-8.8609625340442741e-03 11 10 9 5
-1.5852143874812572e-02 11 10 9 8
 3.7391075252540526e-02 11 10 10 2
-1.2445962133117217e-02 11 10 10 6
-7.1158011035288293e-03 11 10 10 9
 1.0841838836867575e-02 11 10 11 1
-3.0432734462933538e-02 11 10 11 3
 2.9181865932811350e-02 11 10 11 5
-6.1152319010504240e-03 11 10 11 8
 7.5853366039580317e-02 11 10 11 10
 4.0190116914453905e-01 11 11 1 1
 4.0407718997259684e-01 11 11 2 2
-1.2217173431011811e-02 11 11 3 1
 3.8012411072619307e-01 11 11 3 3
 3.7400131377761808e-01 11 11 4 4
-1.4145440412780402e-02 11 11 5 1
 5.5743310187511552e-04 11 11 5 3
 2.2942723937514481e-01 11 11 5 5
 1.2894398667600004e-02 11 11 6 2
 1.9488259342968961e-01 11 11 6 6
 2.9744509406572053e-02 11 11 7 4
 2.0060497457700777e-01 11 11 7 7
-4.5473450583493683e-03 11 11 8 1
-2.6606187321544281e-02 11 11 8 3
-1.4530151526070366e-02 11 11 8 5
 1.9264727183255345e-01 11 11 8 8
 1.8370320076680879e-02 11 11 9 2
 1.2242495423388844e-02 11 11 9 6
 1.9552464011116921e-01 11 11 9 9
-1.1044830939222372e-02 11 11 10 1
-2.8698104129825375e-03 11 11 10 3
 6.0227698129753010e-02 11 11 10 5
-1.3519014763628545e-03 11 11 10 8
 3.1228070751313247e-01 11 11 10 10
-8.3821938788762734e-03 11 11 11 2
-5.3833808884134582e-02 11 11 11 6
 3.4565908886685648e-03 11 11 11 9
 3.3510129290572910e-01 11 11 11 11
 1.8588557032114070e-02 12 1 1 1
 9.8653985991708545e-03 12 1 2 2
-3.1915191182298179e-02 12 1 3 1
-1.4429356057195513e-02 12 1 3 3
 3.1084037896611768e-03 12 1 4 4
-8.6479398055151618e-03 12 1 5 1
 7.6971284802949229e-03 12 1 5 3
-1.2282418797312927e-03 12 1 5 5
 1.9808548476644211e-03 12 1 6 2
-1.8663465983530768e-03 12 1 6 6
 9.3577735067609086e-04 12 1 7 4
 3.3018957606556837e-05 12 1 7 7
 7.4588328029256299e-03 12 1 8 1
 5.0778915598451314e-03 12 1 8 3
 3.2099219860181440e-03 12 1 8 5
 2.2943658731294499e-03 12 1 8 8
 8.4754174706888684e-04 12 1 9 2
 1.5697794493090920e-03 12 1 9 6
 4.3952441882515562e-03 12 1 9 9
-1.6301050418121410e-02 12 1 10 1
 1.2440551269498210e-02 12 1 10 3
 3.4256785434755308e-03 12 1 10 5
-6.3213258421173160e-04 12 1 10 8
 4.9890426968231451e-03 12 1 10 10
-4.9869402191529818e-03 12 1 11 2
 1.3337173214935175e-03 12 1 11 6
-7.8598433079297286e-05 12 1 11 9
-6.2234991942463642e-03 12 1 11 11
 2.9905265651354009e-02 12 1 12 1
 4.5826670472146492e-03 12 2 2 1
-6.4011486856352523e-03 12 2 3 2
-2.0170185168266238e-03 12 2 5 2
 8.4344184533204916e-04 12 2 6 1
-2.0986673358892728e-03 12 2 6 3
-5.7256270531474821e-04 12 2 6 5
 2.6911161965883501e-03 12 2 8 2
-4.0626479909300264e-04 12 2 8 6
-1.3520138487952441e-04 12 2 9 1
-1.9243601412719531e-03 12 2 9 3
-2.9217432062965940e-03 12 2 9 5
-3.4207241169336676e-03 12 2 9 8
-3.7325412412210941e-03 12 2 10 2
 2.2067936639031099e-04 12 2 10 6
-2.6579026193221476e-03 12 2 10 9
-3.0663690759016125e-03 12 2 11 1
 6.4504222353981115e-03 12 2 11 3
-1.5849643566958043e-03 12 2 11 5
-1.3983323293581167e-03 12 2 11 8
-2.9564519268165546e-03 12 2 11 10
 1.1233010186971105e-02 12 2 12 2
-1.4886309543262344e-01 12 3 1 1
-1.1719854376790435e-01 12 3 2 2
-3.2413126935855567e-02 12 3 3 1
-1.6032822381406420e-01 12 3 3 3
-1.4610489119072709e-01 12 3 4 4
 2.3738849460958708e-02 12 3 5 1
-1.2251601502988261e-02 12 3 5 3
-6.9549152203670708e-03 12 3 5 5
-1.9509441584312004e-02 12 3 6 2
-4.7250117532929292e-03 12 3 6 6
-3.4039359529949298e-02 12 3 7 4
-9.4724446998729686e-03 12 3 7 7
 1.2115701290908470e-02 12 3 8 1
 3.7671007048162564e-02 12 3 8 3
 1.7353718107372279e-03 12 3 8 5
-4.0846560521822376e-03 12 3 8 8
-1.3553164802148059e-02 12 3 9 2
-3.0159106719370860e-03 12 3 9 6
-1.5212320906160259e-03 12 3 9 9
 4.0355077213584285e-02 12 3 10 1
-2.6904548286678133e-02 12 3 10 3
-1.2933992368943751e-02 12 3 10 5
 3.7801384998654344e-03 12 3 10 8
-2.9675665523796677e-02 12 3 10 10
 5.4577344399621107e-02 12 3 11 2
 1.1193192864460411e-02 12 3 11 6
 7.2491700207126253e-03 12 3 11 9
-3.6574368316033189e-02 12 3 11 11
 5.6553220199875350e-03 12 3 12 1
 1.0996732048676872e-01 12 3 12 3
-7.4162925063403782e-03 12 4 4 1
-1.0668423646885030e-02 12 4 4 3
-9.0074933048782044e-04 12 4 5 4
-1.4527757141201371e-03 12 4 7 1
-4.1344463257239183e-03 12 4 7 3
 8.8285648807360541e-04 12 4 7 5
 3.9577236628247602e-03 12 4 8 4
-1.4495444393874614e-03 12 4 8 7
-9.2565841571245339e-04 12 4 10 4
-2.1540005537390650e-04 12 4 10 7
 1.3746828750591253e-02 12 4 12 4
-3.3980018872643854e-02 12 5 1 1
-2.6192790351532391e-02 12 5 2 2
 1.5649156517374450e-02 12 5 3 1
-2.0460073171762700e-02 12 5 3 3
-2.5445828864606203e-02 12 5 4 4
 5.7576019949948584e-03 12 5 5 1
-1.3921773452103573e-03 12 5 5 3
-2.8242416033084057e-03 12 5 5 5
-2.8891733465738513e-03 12 5 6 2
 1.2912637154567641e-03 12 5 6 6
-5.1020161827384797e-03 12 5 7 4
-3.3191814762926412e-03 12 5 7 7
-9.5933850908283373e-04 12 5 8 1
 4.6931770411092642e-03 12 5 8 3
 1.6812596240928660e-03 12 5 8 5
 2.0288190240462835e-03 12 5 8 8
-4.8111984165558775e-03 12 5 9 2
-1.1151327793104265e-03 12 5 9 6
 2.2445913505543952e-03 12 5 9 9
 9.9267263696110400e-03 12 5 10 1
-2.8787379340492886e-03 12 5 10 3
-5.6245505074573564e-03 12 5 10 5
 3.1377977914233829e-03 12 5 10 8
-1.1618161099216429e-02 12 5 10 10
 2.3074092699431632e-03 12 5 11 2
 3.0078725107280102e-03 12 5 11 6
 5.0730111942319522e-04 12 5 11 9
-1.0674132407010088e-02 12 5 11 11
-2.8152899016868817e-03 12 5 12 1
 1.2307393784185921e-02 12 5 12 3
 7.6640743537435586e-03 12 5 12 5
 4.6410168353010282e-05 12 6 2 1
-2.4165908029995364e-03 12 6 3 2
-8.3994383291036731e-04 12 6 5 2
 1.2576042252833604e-04 12 6 6 1
-8.0592337533735305e-04 12 6 6 3
 3.6665553265574071e-03 12 6 6 5
 5.7137697023390208e-04 12 6 8 2
-1.5314733598477031e-03 12 6 8 6
 2.5629952147223885e-04 12 6 9 1
-2.9648996771490348e-04 12 6 9 3
-6.3742192415089383e-04 12 6 9 5
 1.9259788341773575e-04 12 6 9 8
-1.3040294440368333e-03 12 6 10 2
-3.1024064911060190e-06 12 6 10 6
 1.1747720128759929e-03 12 6 10 9
 2.9321836952598179e-04 12 6 11 1
 1.7100329447722518e-03 12 6 11 3
-1.1307807334755627e-03 12 6 11 5
-8.7645406151751464e-05 12 6 11 8
-2.3820888170403070e-03 12 6 11 10
 1.2395048068356024e-03 12 6 12 2
 1.3107717249243953e-03 12 6 12 6
-1.1073534478070735e-03 12 7 4 1
-5.1611232953916522e-03 12 7 4 3
 2.2427186035272456e-04 12 7 5 4
-4.6699727627512141e-04 12 7 7 1
-8.8933338815708055e-04 12 7 7 3
-3.0183025517300471e-03 12 7 7 5
 9.8078626909510773e-04 12 7 8 4
-1.9761277341299914e-03 12 7 8 7
-7.1177546245625818e-04 12 7 10 4
 1.4848236396640727e-03 12 7 10 7
 1.3681758747124148e-03 12 7 12 4
 2.4228569486241221e-03 12 7 12 7
 7.7291478440024888e-02 12 8 1 1
 6.7867011812398403e-02 12 8 2 2
 1.6796037091439616e-02 12 8 3 1
 8.9087881126698798e-02 12 8 3 3
 7.7848934735876077e-02 12 8 4 4
-6.3783248246582422e-03 12 8 5 1
 5.8569538457535599e-03 12 8 5 3
 1.3807302237035702e-02 12 8 5 5
 7.4108020026660559e-03 12 8 6 2
 7.1454245349868439e-03 12 8 6 6
 1.2092011982425807e-02 12 8 7 4
 1.4810982608595218e-02 12 8 7 7
-3.8628255152375235e-03 12 8 8 1
-1.1784644831139984e-02 12 8 8 3
 2.9692955366841050e-03 12 8 8 5
 1.5614435586866057e-02 12 8 8 8
 3.4105323431550538e-03 12 8 9 2
 3.3767462156270578e-03 12 8 9 6
 1.6193016100161384e-02 12 8 9 9
-9.6563471591803868e-03 12 8 10 1
 1.0407875148192398e-02 12 8 10 3
 1.1244887771519009e-02 12 8 10 5
 1.2356141014638056e-03 12 8 10 8
 2.9650051461374987e-02 12 8 10 10
-1.9550094719169034e-02 12 8 11 2
-8.3798507616086038e-03 12 8 11 6
 1.2529931549056794e-03 12 8 11 9
 3.4899716424240779e-02 12 8 11 11
-1.0915143960946987e-03 12 8 12 1
-2.3156917125727434e-02 12 8 12 3
-7.0486145524778802e-04 12 8 12 5
 1.9087822380710134e-02 12 8 12 8
-7.9048996370986654e-03 12 9 2 1
-2.3584714937439073e-03 12 9 3 2
-1.8590082380541125e-03 12 9 5 2
-4.0427620645681591e-04 12 9 6 1
-1.0742779234818463e-03 12 9 6 3
 1.4742401909212854e-03 12 9 6 5
-6.1234327735722139e-04 12 9 8 2
 2.2107699889418325e-04 12 9 8 6
 6.2088135875048960e-04 12 9 9 1
 2.2191527259805442e-03 12 9 9 3
 2.7933500433234594e-03 12 9 9 5
 2.9916805170278286e-03 12 9 9 8