 &FCI NORB=  24,NELEC=10,MS2=0,
  ORBSYM=1,1,3,1,2,1,3,3,1,1,2,3,1,4,2,1,3,3,1,2,4,1,1,3
  ISYM=1,
 &END
 4.7398434920540486    1    1    1    1
-0.4309464335730816    1    1    2    1
 1.0451964644564595    1    1    2    2
-2.2156112487636973e-18    1    1    3    1
-1.4748810205814967e-18    1    1    3    2
 0.87353357768773388    1    1    3    3
-0.14093711324959213    1    1    4    1
 0.091066989138795199    1    1    4    2
 5.9534994980893036e-18    1    1    4    3
 0.9824144565665629    1    1    4    4
 1.0387347604487751    1    1    5    5
-0.14519952751906334    1    1    6    1
 0.20882547509097013    1    1    6    2
 5.8841075331106087e-18    1    1    6    3
-0.10813778814913862    1    1    6    4
 0.40913987083467951    1    1    6    6
-2.2410123385354701e-17    1    1    7    1
-3.0500310510680868e-17    1    1    7    2
-0.2440659194848126    1    1    7    3
-2.7691749594291576e-18    1    1    7    4
-3.7518311444421531e-17    1    1    7    6
 0.39875636138173337    1    1    7    7
-2.9992430564103544e-18    1    1    8    1
-1.3708609185655522e-17    1    1    8    2
-0.16616280458683183    1    1    8    3
 8.8073613170005612e-18    1    1    8    4
 1.0897832785096625e-17    1    1    8    6
 0.16008680329491343    1    1    8    7
 0.55880126087296622    1    1    8    8
 0.13095165764202674    1    1    9    1
-0.17277523146018378    1    1    9    2
 7.6132289994150829e-18    1    1    9    3
 0.16995487854352578    1    1    9    4
-0.17229475393914806    1    1    9    6
-5.4888318131110015e-17    1    1    9    7
 1.3519222669854079e-17    1    1    9    8
 0.58944701708196501    1    1    9    9
 0.094130190048457657    1    1   10    1
-0.02951826192191755    1    1   10    2
 3.3536706831640226e-18    1    1   10    3
-0.40172382496248449    1    1   10    4
 0.088298879055976304    1    1   10    6
 1.0898295436669218e-16    1    1   10    7
-8.9264426470548671e-17    1    1   10    8
-0.13390517790222947    1    1   10    9
 0.82642210873495225    1    1   10   10
-0.51126225384381196    1    1   11    5
 0.9970983212775919    1    1   11   11
-4.3139155186914257e-17    1    1   12    1
-2.2934425381980861e-17    1    1   12    2
-0.33598802530313726    1    1   12    3
 1.2913249297065362e-17    1    1   12    4
 4.9053958484466312e-17    1    1   12    6
 0.22019120302219655    1    1   12    7
 0.12140092402482404    1    1   12    8
-6.055235994993689e-17    1    1   12    9
-6.6734642103740084e-17    1    1   12   10
 0.77705535745596055    1    1   12   12
 0.15978518009609957    1    1   13    1
-0.1501349367339618    1    1   13    2
 1.5458485670160867e-18    1    1   13    3
-0.093416730982303423    1    1   13    4
-0.065212744189428198    1    1   13    6
-1.2359812666495869e-17    1    1   13    8
 0.0059094926473037442    1    1   13    9
 0.057012384777080372    1    1   13   10
 1.5004106493800912e-17    1    1   13   12
 0.57237797696339376    1    1   13   13
-2.9642276105719549e-18    1    1   14    5
-1.4028152654561674e-17    1    1   14   11
 0.51552211420521521    1    1   14   14
-0.021669326424997824    1    1   15    5
 0.032248356442378973    1    1   15   11
 4.8700061177235614e-17    1    1   15   14
 0.5131529439369521    1    1   15   15
 0.31248114142682548    1    1   16    1
-0.28901191818024358    1    1   16    2
-6.2323942231090947e-18    1    1   16    3
-0.14381926167343403    1    1   16    4
-0.12682709292988376    1    1   16    6
 4.2726747315012167e-17    1    1   16    7
-2.7129664491249685e-17    1    1   16    8
 0.026681010847436726    1    1   16    9
 0.11326421680700315    1    1   16   10
-9.2894048869258342e-17    1    1   16   12
 0.10871364178307633    1    1   16   13
 0.77977555573914259    1    1   16   16
 1.4760051764154956e-17    1    1   17    1
 2.4884832064058752e-17    1    1   17    2
 0.0079750432895507907    1    1   17    3
 9.392361628926119e-18    1    1   17    4
 4.3337903889752648e-18    1    1   17    6
-0.0078017665981796732    1    1   17    7
-0.012874205691344048    1    1   17    8
 4.1873048907764036e-18    1    1   17    9
 1.3169855402174666e-17    1    1   17   10
-0.012651719067620497    1    1   17   12
-1.452420234299092e-17    1    1   17   13
-5.4657893990342277e-17    1    1   17   16
 0.46383466963803843    1    1   17   17
 3.4368679854367318e-17    1    1   18    1
-7.2607136577276695e-18    1    1   18    2
 0.19102241007921869    1    1   18    3
-1.7504624073541415e-17    1    1   18    4
-8.5245976183378172e-17    1    1   18    6
-0.14262864812214623    1    1   18    7
-0.23792101056840459    1    1   18    8
-7.4676346263158365e-17    1    1   18    9
 2.2945131273714614e-17    1    1   18   10
-0.28087346637829952    1    1   18   12
-5.6493172164201378e-17    1    1   18   13
-6.8141878344632031e-17    1    1   18   16
 0.019779920560964052    1    1   18   17
 0.80885896931581447    1    1   18   18
-0.21064754356439119    1    1   19    1
 0.18958082430468992    1    1   19    2
-3.3362694104765174e-17    1    1   19    3
-0.12140581048601513    1    1   19    4
 0.14887264282344415    1    1   19    6
 1.9829108811527435e-17    1    1   19    7
-2.5770063052962999e-17    1    1   19    8
-0.27365997244558682    1    1   19    9
 0.16794924559368168    1    1   19   10
 8.0964921933684191e-17    1    1   19   12
-0.052854714421632046    1    1   19   13
-0.069573332952218681    1    1   19   16
 8.0019861656062002e-18    1    1   19   17
-4.7460334220077752e-17    1    1   19   18
 0.82068876734905671    1    1   19   19
-0.0049221578783439236    1    1   20    5
 1.9659183018877759e-05    1    1   20   11
-7.5795938156955647e-18    1    1   20   14
-0.15174731473544961    1    1   20   15
 0.88013765420868906    1    1   20   20
 1.2567001771456545e-17    1    1   21   11
 0.14863473728280338    1    1   21   14
 2.1908708007222136e-18    1    1   21   15
-2.3587559230516007e-18    1    1   21   20
 0.88538994165919704    1    1   21   21
 0.010419637364787239    1    1   22    1
-0.0087666036622858889    1    1   22    2
 2.003727566755298e-17    1    1   22    3
-0.015730588104931924    1    1   22    4
-0.00025774081392073599    1    1   22    6
 2.1799037700144284e-17    1    1   22    7
 2.4638092009192578e-18    1    1   22    8
-0.033688662348211981    1    1   22    9
-0.017362170418714098    1    1   22   10
-4.8984163673668043e-18    1    1   22   12
 0.15484763317984643    1    1   22   13
-0.061334116527480949    1    1   22   16
-8.3123653164638464e-18    1    1   22   17
-9.8286067831525941e-18    1    1   22   18
-0.0062379182487846295    1    1   22   19
 0.87321919198040698    1    1   22   22
-0.049110371891162463    1    1   23    1
 0.052217709442968246    1    1   23    2
 8.0017768520615869e-18    1    1   23    3
-0.099395722907137676    1    1   23    4
 0.04254913364426658    1    1   23    6
-9.1782864894348314e-17    1    1   23    7
 1.4269801314948279e-16    1    1   23    8
-0.05634388255458854    1    1   23    9
 0.18740222966533329    1    1   23   10
 1.726480375728812e-16    1    1   23   12
-0.018460744619680072    1    1   23   13
-0.10137328121775468    1    1   23   16
 9.5847174195234806e-18    1    1   23   17
 1.2946767855353548e-16    1    1   23   18
-0.045157359529918846    1    1   23   19
-0.0089072485160485333    1    1   23   22
 0.89084922067824024    1    1   23   23
 4.3170921380075781e-17    1    1   24    1
-2.4744028928909174e-17    1    1   24    2
-0.12745265038320391    1    1   24    3
-6.9327346010999423e-18    1    1   24    4
-1.0181755359711859e-16    1    1   24    6
 0.054100163626006607    1    1   24    7
-0.004714514746878948    1    1   24    8
 4.1604076426120685e-17    1    1   24    9
 1.0563744269655162e-16    1    1   24   10
 0.22895330957230053    1    1   24   12
-3.6030225841395659e-16    1    1   24   16
 0.017758156432994835    1    1   24   17
 0.034460687509249299    1    1   24   18
-7.2807311581705654e-17    1    1   24   19
-8.7603961330896858e-17    1    1   24   22
-2.9962080625461033e-16    1    1   24   23
 0.92241475383490756    1    1   24   24
-0.4309464335730821    2    1    1    1
 0.063720565678379318    2    1    2    1
-0.014138764891734155    2    1    2    2
-0.0063551652315004563    2    1    3    3
 0.017126689821308053    2    1    4    1
-0.0078886773322391218    2    1    4    2
-0.012605427346370969    2    1    4    4
-0.011302972237360437    2    1    5    5
 0.022878724332583256    2    1    6    1
-0.0045313818411967842    2    1    6    2
-2.4817949639139819e-18    2    1    6    3
 0.00057281446805014351    2    1    6    4
-0.0018971757344642735    2    1    6    6
-4.8081751260950541e-18    2    1    7    1
 0.0041337112049330792    2    1    7    3
 2.0863319942278732e-18    2    1    7    4
-1.2709867744463955e-18    2    1    7    6
-0.0020920072228249767    2    1    7    7
 3.0906403642083594e-18    2    1    8    1
 0.0049779609176379127    2    1    8    3
-1.2176211917077339e-18    2    1    8    4
-6.3928773789474509e-18    2    1    8    6
-0.0024023187935145267    2    1    8    7
-0.0019690685474356025    2    1    8    8
-0.021474547050278625    2    1    9    1
 0.0038879390822989888    2    1    9    2
-3.8183572650806548e-18    2    1    9    3
-0.0030152065193328162    2    1    9    4
 0.002353614873898026    2    1    9    6
-6.0514860716480926e-18    2    1    9    7
-4.3901809680681208e-18    2    1    9    8
-0.0026147216036450809    2    1    9    9
-0.0099257770583209663    2    1   10    1
 0.0042391796224331294    2    1   10    2
 0.012443357229979619    2    1   10    4
-0.0011447757390491671    2    1   10    6
-4.2174464887681915e-18    2    1   10    7
 3.8518523464705305e-18    2    1   10    8
 0.0042884668351310055    2    1   10    9
-0.012986651090674548    2    1   10   10
 0.014222347759876209    2    1   11    5
-0.018040556038977019    2    1   11   11
 1.850425939922736e-18    2    1   12    1
 1.1056260787941633e-18    2    1   12    2
 0.0081329140673758772    2    1   12    3
-1.4322702551442863e-18    2    1   12    4
 2.7646072649508754e-18    2    1   12    6
-0.0047158815538883162    2    1   12    7
-0.0046462183209433992    2    1   12    8
 9.254119204020351e-18    2    1   12    9
 3.1969688998956648e-18    2    1   12   10
-0.010598490641314134    2    1   12   12
-0.023037412765891233    2    1   13    1
 0.0059704189656016081    2    1   13    2
 0.0028313087166849183    2    1   13    4
 0.0016746176276192643    2    1   13    6
-1.6960510230174856e-18    2    1   13    7
 1.4487566001259183e-18    2    1   13    8
-0.00082723310102471661    2    1   13    9
-0.0041512577917946943    2    1   13   10
 1.4770836496685573e-18    2    1   13   12
-0.0023938857702054711    2    1   13   13
 0.00097462492514962368    2    1   14   14
 0.0018569349134986452    2    1   15    5
-0.00086991221820364073    2    1   15   11
 0.00050373696741519295    2    1   15   15
-0.045110011783542195    2    1   16    1
 0.011058130623346235    2    1   16    2
 0.0078483899330705712    2    1   16    4
 0.0027894412791522188    2    1   16    6
 1.0247572199096505e-17    2    1   16    7
-1.1870080069799384e-17    2    1   16    8
-0.0016732794252151656    2    1   16    9
-0.0069495148586245156    2    1   16   10
-5.8908986206590688e-18    2    1   16   12
-0.0051716102027256367    2    1   16   13
-0.0095337428065573084    2    1   16   16
-0.00017277070213519128    2    1   17    3
 1.785036868935487e-18    2    1   17    6
 0.0002896749022655417    2    1   17    7
 0.00068991650991742171    2    1   17    8
-0.00010467321201138914    2    1   17   12
 1.2013180394210475e-18    2    1   17   16
 0.00081037956672202973    2    1   17   17
 1.3691875402343226e-18    2    1   18    1
 2.3321580535645713e-18    2    1   18    2
-0.0098358373471002271    2    1   18    3
-1.7105096008433036e-18    2    1   18    4
 3.0908795891329968e-18    2    1   18    6
 0.0054907905592287663    2    1   18    7
 0.0051712987101748412    2    1   18    8
 1.0925206790138633e-17    2    1   18    9
 3.5578633470737201e-18    2    1   18   10
 0.011344418043053386    2    1   18   12
 1.5171714562182355e-18    2    1   18   13
-7.6165250374462484e-18    2    1   18   16
-0.00062107796422237636    2    1   18   17
-0.010608252804321362    2    1   18   18
 0.034728249385129022    2    1   19    1
-0.0079851936390259084    2    1   19    2
-2.2516062020816235e-18    2    1   19    3
 0.0046352677302978727    2    1   19    4
-0.0045989291060370176    2    1   19    6
 1.6702908014217003e-18    2    1   19    7
-8.7213077678832291e-18    2    1   19    8
 0.0058920603539465355    2    1   19    9
-0.0061358469523083549    2    1   19   10
 0.0013368000111449445    2    1   19   13
 0.0034009633816337822    2    1   19   16
 3.8648324177308764e-18    2    1   19   17
-0.0089561811624088526    2    1   19   19
-0.0032434431165389559    2    1   20    5
 0.002261514635705765    2    1   20   11
 0.00086469335507034382    2    1   20   15
-0.0020379487942127736    2    1   20   20
-0.00055539255700710216    2    1   21   14
-0.002215015938249913    2    1   21   21
-0.0013211093361239559    2    1   22    1
 0.00088099267000563174    2    1   22    2
-0.0027147252398104413    2    1   22    4
 0.0010359721814828329    2    1   22    6
 1.6457163198713989e-18    2    1   22    7
-5.9112465455764413e-18    2    1   22    8
-0.0015547354007598515    2    1   22    9
 0.0016112658512090114    2    1   22   10
-0.0006822295118673081    2    1   22   13
 0.00038507808409103439    2    1   22   16
-1.3521326702168611e-18    2    1   22   18
 0.0011049448516433414    2    1   22   19
-0.0020499619916637879    2    1   22   22
 0.0098315391446849951    2    1   23    1
-0.0020586473293130272    2    1   23    2
 0.0035339298919999547    2    1   23    4
-0.0018035569724164371    2    1   23    6
 1.0689923262757448e-17    2    1   23    7
-1.2660030058282795e-17    2    1   23    8
 0.0021485531436803676    2    1   23    9
-0.0047336385435413058    2    1   23   10
-7.1619030719785815e-18    2    1   23   12
-0.00020292586542271796    2    1   23   13
 0.00028628715403825517    2    1   23   16
 3.9337905421896546e-18    2    1   23   17
-8.2601713632933597e-18    2    1   23   18
-0.0033091682066216347    2    1   23   19
 0.00057979644945212628    2    1   23   22
-0.0045403092889404958    2    1   23   23
-1.7609703087429872e-18    2    1   24    2
 0.0023328434244391017    2    1   24    3
 1.1035091037758845e-18    2    1   24    4
-8.1813162658175747e-18    2    1   24    6
-0.0012474852983843402    2    1   24    7
-0.00077253656840481279    2    1   24    8
-1.6115783927767985e-17    2    1   24    9
-0.0039938496718394173    2    1   24   12
-2.0891013633478567e-18    2    1   24   13
-1.7814041518274316e-18    2    1   24   16
-0.00033433909420874824    2    1   24   17
 0.0036863469019592647    2    1   24   18
-7.055987013591103e-18    2    1   24   19
-2.8624608075720625e-18    2    1   24   22
-0.0045625427541009719    2    1   24   24
 1.04519646445646    2    2    1    1
-0.014138764891734204    2    2    2    1
 0.75344344470360514    2    2    2    2
 1.6557820374320076e-17    2    2    3    2
 0.67880325984689227    2    2    3    3
-0.014677547048237257    2    2    4    1
-0.01763163376208356    2    2    4    2
 1.8243688084421007e-17    2    2    4    3
 0.67945189619290725    2    2    4    4
 0.71370443073810819    2    2    5    5
-0.0017827767120484942    2    2    6    1
 0.10863277313190677    2    2    6    2
-0.058729308731414361    2    2    6    4
 0.36662931792973757    2    2    6    6
-1.4624994417698136e-17    2    2    7    1
 6.9486779275414245e-17    2    2    7    2
-0.12456522824042827    2    2    7    3
 1.8466528884821238e-17    2    2    7    4
 5.6660158647618461e-18    2    2    7    6
 0.34560286007986685    2    2    7    7
 1.1488143396510021e-17    2    2    8    1
 2.0109811897796969e-17    2    2    8    2
-0.032680887960741388    2    2    8    3
 2.1140833363490655e-18    2    2    8    4
-2.338248370663464e-17    2    2    8    6
 0.10031037578148636    2    2    8    7
 0.51112832163134703    2    2    8    8
-0.00080254623381586425    2    2    9    1
-0.071308903579471297    2    2    9    2
 5.8281839707017834e-18    2    2    9    3
 0.066631828342658975    2    2    9    4
-0.11293489355284987    2    2    9    6
 3.9091635471829416e-17    2    2    9    7
 7.1126932453165557e-17    2    2    9    8
 0.52340840804325794    2    2    9    9
 0.01313456589056535    2    2   10    1
 0.0052966272561075049    2    2   10    2
-2.5269313687105515e-17    2    2   10    3
-0.1448838115460987    2    2   10    4
 0.048120142224648561    2    2   10    6
 3.1714800297883203e-17    2    2   10    7
 1.5834627031640072e-17    2    2   10    8
-0.02785741318574016    2    2   10    9
 0.56944189294322856    2    2   10   10
-0.18846820647914767    2    2   11    5
 0.61707946374782163    2    2   11   11
 6.1337357309208157e-18    2    2   12    1
-9.7048493034598211e-17    2    2   12    2
-0.13803172350057177    2    2   12    3
 8.5396474835592677e-18    2    2   12    4
-6.5153882763331902e-17    2    2   12    6
 0.11096897784201434    2    2   12    7
 0.027813083045261512    2    2   12    8
-2.2722332024602946e-16    2    2   12    9
-3.6447661226767438e-17    2    2   12   10
 0.54252991512272419    2    2   12   12
 0.006605789654701595    2    2   13    1
-0.046254836014676309    2    2   13    2
-2.58753624718975e-18    2    2   13    3
-0.059101012918302144    2    2   13    4
-0.03475570006937858    2    2   13    6
 1.6003248288197771e-17    2    2   13    7
 1.6681872575323301e-17    2    2   13    8
-0.0040801025160057047    2    2   13    9
-0.016785034478787104    2    2   13   10
-3.2314905397734233e-17    2    2   13   12
 0.51998612048313397    2    2   13   13
 1.2797814010309742e-18    2    2   14    5
 3.012538898509053e-18    2    2   14   11
 0.52667007705334046    2    2   14   14
 0.018256758229112196    2    2   15    5
 0.024528927359589791    2    2   15   11
 3.4705961701690033e-18    2    2   15   14
 0.51226580596645555    2    2   15   15
 0.011699879602088218    2    2   16    1
-0.10026412636880878    2    2   16    2
-1.2813306901986922e-17    2    2   16    3
-0.028844633053331944    2    2   16    4
-0.072428266355116733    2    2   16    6
 6.9255592497113676e-17    2    2   16    7
-1.8377186871073401e-16    2    2   16    8
-0.0078251678413158634    2    2   16    9
 0.013256999023251838    2    2   16   10
 2.751949494534134e-16    2    2   16   12
 0.020270792279887859    2    2   16   13
 0.588407122984273    2    2   16   16
 7.4926349000329726e-18    2    2   17    1
-4.2028587886604099e-17    2    2   17    2
 0.00065401724034282269    2    2   17    3
 2.6728664410330256e-18    2    2   17    4
-3.4972222433907272e-17    2    2   17    6
 0.00078985317279958809    2    2   17    7
 0.0075340890605389279    2    2   17    8
-9.1343656717663865e-17    2    2   17    9
-2.0560042337428414e-17    2    2   17   10
-0.018297514224550813    2    2   17   12
 1.3445663163602853e-17    2    2   17   13
-2.5391724246443661e-17    2    2   17   16
 0.48655931778961747    2    2   17   17
-9.1226528448012926e-18    2    2   18    1
 4.1701710576484256e-18    2    2   18    2
 0.0052670919074673684    2    2   18    3
 1.1036436781350953e-17    2    2   18    4
 2.1821868529794035e-17    2    2   18    6
-0.031391337252088564    2    2   18    7
-0.12140821958872362    2    2   18    8
-4.0486111054579355e-17    2    2   18    9
-5.4159438605934842e-17    2    2   18   10
-0.073108927867594695    2    2   18   12
 7.0220569212344875e-17    2    2   18   13
-2.2259118821864377e-17    2    2   18   16
 0.0045920503194923452    2    2   18   17
 0.60594023638344974    2    2   18   18
 5.8441731628733615e-05    2    2   19    1
 0.0360936525053107    2    2   19    2
 2.5771146512079047e-17    2    2   19    3
-0.011203377216408359    2    2   19    4
 0.051892728899154944    2    2   19    6
-6.0164644078816604e-17    2    2   19    7
 4.2563867104458673e-17    2    2   19    8
-0.13432266775876492    2    2   19    9
 0.043543750468240973    2    2   19   10
 1.4299606028715945e-16    2    2   19   12
-0.031195347209217017    2    2   19   13
-0.016798569237552723    2    2   19   16
-2.6884004452989253e-17    2    2   19   17
 8.2381229753064074e-17    2    2   19   18
 0.62716355930847922    2    2   19   19
-0.03784443429681749    2    2   20    5
 0.019584117721865798    2    2   20   11
 1.4749918265936079e-17    2    2   20   14
-0.089169728685340593    2    2   20   15
 0.70455807437147067    2    2   20   20
-3.4658123197925599e-18    2    2   21    5
-3.1008903000471203e-18    2    2   21   11
 0.090505907325784341    2    2   21   14
 3.6291387479362622e-18    2    2   21   15
-8.5465154303533112e-18    2    2   21   20
 0.70528049215893807    2    2   21   21
 0.00076089983459997257    2    2   22    1
 0.0035976011527665795    2    2   22    2
 6.4712304436100096e-18    2    2   22    3
-0.037978060248271696    2    2   22    4
 0.011017545030243355    2    2   22    6
-3.9574695117186144e-17    2    2   22    7
-0.043495694043676258    2    2   22    9
 0.0017296620881466097    2    2   22   10
 7.723384409211905e-17    2    2   22   12
 0.094707144772581991    2    2   22   13
-0.034650758929138027    2    2   22   16
-5.2797329873559842e-17    2    2   22   17
-2.627986721781404e-18    2    2   22   18
 0.0038251668038822538    2    2   22   19
 0.70161279436345225    2    2   22   22
 0.0030856034684026081    2    2   23    1
 0.011246033110284251    2    2   23    2
 4.4964491628219577e-17    2    2   23    3
-0.018709780665759273    2    2   23    4
 0.007836170464964775    2    2   23    6
 9.6308158071963419e-17    2    2   23    7
-7.1331976503256158e-17    2    2   23    8
-0.032682117956639625    2    2   23    9
 0.074836498641208338    2    2   23   10
 1.3331576480997967e-16    2    2   23   12
-0.020719066370523783    2    2   23   13
-0.06324713765015362    2    2   23   16
-8.5020208972727319e-17    2    2   23   17
 6.7459151666661559e-17    2    2   23   18
-0.049417150014582766    2    2   23   19
-0.0040223764252579992    2    2   23   22
 0.68871328197419657    2    2   23   23
-1.5617478613633762e-17    2    2   24    2
-0.048975203767803309    2    2   24    3
-1.5781189673657011e-18    2    2   24    4
-4.9055845464595783e-17    2    2   24    6
 0.020439390904605198    2    2   24    7
 0.00049729674146602968    2    2   24    8
-3.014238044721828e-17    2    2   24    9
 6.9373395818296965e-17    2    2   24   10
 0.11875708261828274    2    2   24   12
-5.4728096628546358e-17    2    2   24   13
-1.4476290312125676e-16    2    2   24   16
 0.0087032162232141067    2    2   24   17
 0.05374134477565351    2    2   24   18
-1.0294226656651056e-16    2    2   24   19
 1.3469600744085278e-17    2    2   24   22
-2.0102280409781205e-16    2    2   24   23
 0.70076425953041621    2    2   24   24
 4.8470508637492366e-18    3    1    1    1
-1.2356927380031293e-18    3    1    2    2
 0.01920896427008489    3    1    3    1
 0.023142739168547369    3    1    3    2
-1.7007674707104304e-18    3    1    3    3
 0.003121081150022896    3    1    4    3
-1.0837847664258121e-18    3    1    6    1
 0.0043767713003202736    3    1    6    3
-0.010836639286709695    3    1    7    1
-0.0097786349659979011    3    1    7    2
-2.0096885426437833e-18    3    1    7    3
-0.0039003597865369544    3    1    7    4
-0.0048432333932659985    3    1    7    6
-0.010331558019343741    3    1    8    1
-0.0073056074981715045    3    1    8    2
-1.9529161179602945e-18    3    1    8    3
-0.0089191207937098903    3    1    8    4
-0.0017047327461113427    3    1    8    6
-6.3818307295008256e-18    3    1    8    7
 2.1055826907545162e-18    3    1    9    2
 0.0007404646068175949    3    1    9    3
 1.3213977522732784e-18    3    1    9    4
 4.2041549895090497e-18    3    1    9    6
 0.0019336855017226188    3    1    9    7
 0.0044340394926310357    3    1    9    8
 0.0016441254920011334    3    1   10    3
 1.9297632064268598e-18    3    1   10    4
 1.2223610770923594e-18    3    1   10    6
 0.00045244557727530112    3    1   10    7
 0.0019626282508615092    3    1   10    8
-4.721881204128383e-18    3    1   10    9
-5.8379453236683567e-18    3    1   10   10
-4.8034228344421907e-18    3    1   11   11
-0.023620552816632324    3    1   12    1
-0.013182809044197726    3    1   12    2
 1.876784070471745e-18    3    1   12    3
-0.0014046126631761641    3    1   12    4
-0.0066330142333672834    3    1   12    6
 3.2251157124628499e-18    3    1   12    7
 9.5368711078119212e-18    3    1   12    8
 0.0049743270039460307    3    1   12    9
 0.0027431941690502976    3    1   12   10
-7.1885594527834849e-18    3    1   12   12
-1.408737845702975e-18    3    1   13    1
 2.6621273394138912e-18    3    1   13    2
-0.0093691185425402914    3    1   13    3
 2.6521884758623507e-18    3    1   13    4
 4.6312824021651025e-18    3    1   13    6
 0.0041987054791920043    3    1   13    7
 0.005508579255267541    3    1   13    8
 1.4390906309755925e-18    3    1   13    9
-5.1495925252049785e-18    3    1   13   10
 0.0064042090612399958    3    1   13   12
 0.0071823621995605411    3    1   14    5
-0.00071081208612019779    3    1   14   11
-1.3773732312816202e-18    3    1   14   14
 2.6347602078143629e-18    3    1   15   11
 0.0063039089364093446    3    1   15   14
-3.0698919360193594e-18    3    1   15   15
 4.9124162256001982e-18    3    1   16    2
-0.010370648166106033    3    1   16    3
-1.8874440071108201e-18    3    1   16    4
 5.4848839736123055e-18    3    1   16    6
 0.0055909759551088156    3    1   16    7
 0.0036780517137318201    3    1   16    8
 1.3739457161912907e-17    3    1   16    9
 6.2206061550411546e-18    3    1   16   10
 0.014102713634031551    3    1   16   12
 8.6005007079603796e-18    3    1   16   13
-3.7789512081807246e-18    3    1   16   16
 0.00039963116949201267    3    1   17    1
 0.00020244056803488851    3    1   17    2
 1.4425517593982621e-18    3    1   17    3
 0.0012975785901376503    3    1   17    4
 0.00026133627020290506    3    1   17    6
 2.1599262990745225e-18    3    1   17    7
 3.4984348050256052e-18    3    1   17    8
-0.0031752616012150525    3    1   17    9
-0.0030123202257818574    3    1   17   10
-3.9003846081832801e-18    3    1   17   12
 0.0054356211102117857    3    1   17   13
-0.00087898704013521874    3    1   17   16
-5.3938096952903461e-18    3    1   17   17
 0.023356477012630644    3    1   18    1
 0.0058514476465177856    3    1   18    2
 1.0038980187860874e-18    3    1   18    3
 0.010373848213807987    3    1   18    4
 0.00092174686907021952    3    1   18    6
 2.159796196197925e-18    3    1   18    7
-1.0999504928566276e-18    3    1   18    8
-0.00019305124372899279    3    1   18    9
-0.0069248247012648799    3    1   18   10
-6.8467868609288813e-18    3    1   18   12
-0.0041981875309360546    3    1   18   13
-0.0088889831242574512    3    1   18   16
 1.2736637035826201e-18    3    1   18   17
-1.5518774522642694e-18    3    1   18   18
-1.8382851749757541e-18    3    1   19    2
-0.0014473213176524305    3    1   19    3
-4.6421864156596862e-18    3    1   19    4
-2.0030007477443528e-18    3    1   19    6
 0.00010438497122019423    3    1   19    7
-0.0010603918071798227    3    1   19    8
 7.330409734817537e-18    3    1   19    9
 7.8518564001394718e-18    3    1   19   10
-0.0028987664183161865    3    1   19   12
 6.8224769762477373e-18    3    1   19   13
-5.0512373536176877e-18    3    1   19   16
 0.0013042154395702318    3    1   19   17
 0.0076521253963894829    3    1   19   18
-1.3696828150159776e-17    3    1   19   19
 1.6111083308858306e-18    3    1   20   11
 0.00079748252548592644    3    1   20   14
-1.4782158803764387e-18    3    1   20   15
-4.1443824386861553e-18    3    1   20   20
 0.017265559523256514    3    1   21    5
-0.011959118992018828    3    1   21   11
-0.0016895426889376283    3    1   21   15
 0.00086850836683814204    3    1   21   20
-2.146389133904375e-18    3    1   21   21
-0.01073943348247362    3    1   22    3
-2.4683341793827002e-18    3    1   22    4
-1.7475468706856463e-18    3    1   22    6
 0.0058969546500391686    3    1   22    7
 0.0053310361760917349    3    1   22    8
 3.0773477154295321e-18    3    1   22    9
 4.5548827520140373e-18    3    1   22   10
 0.0077999947208096752    3    1   22   12
 4.16269990579569e-18    3    1   22   13
-7.5589430276511907e-18    3    1   22   16
-0.00047517596961450603    3    1   22   17
-0.0048623043490463617    3    1   22   18
-5.1045527357529804e-18    3    1   22   19
-4.8468259122090264e-18    3    1   22   22
-1.2636223906811758e-18    3    1   23    1
-2.7255769573980506e-18    3    1   23    2
 0.011968191137558815    3    1   23    3
-4.7057427873544981e-18    3    1   23    4
-1.8244277097492833e-18    3    1   23    6
-0.0070359722215764964    3    1   23    7
-0.00861704357452725    3    1   23    8
 6.1264226779532358e-18    3    1   23    9
 1.0558254007925896e-17    3    1   23   10
-0.008627864054586128    3    1   23   12
 6.8377030676104928e-18    3    1   23   13
-1.4997328355013108e-17    3    1   23   16
 0.00043014861418964699    3    1   23   17
 0.0082385989311588685    3    1   23   18
-1.7812605380732813e-17    3    1   23   19
-1.1203744294411769e-17    3    1   23   22
-1.7368904399746828e-17    3    1   23   23
-0.012798770756678859    3    1   24    1
-0.0057323665597060064    3    1   24    2
-3.4867172279893792e-18    3    1   24    3
 0.01287151056686997    3    1   24    4
-0.0057771556657820484    3    1   24    6
-5.0897834737875458e-18    3    1   24    7
-4.2672053050757925e-18    3    1   24    8