 &FCI NORB=  24,NELEC=10,MS2=0,
  ORBSYM=1,1,4,1,3,1,4,4,1,1,3,4,1,2,3,1,4,4,1,3,2,1,1,4,
  ISYM=1,
 &END
 4.7398434920540407    1    1    1    1
-0.43094643357308232    1    1    2    1
 1.0451964644564595    1    1    2    2
 3.2116112078059139e-18    1    1    3    1
 8.3096218541960046e-18    1    1    3    2
 0.87353357768773343    1    1    3    3
-0.14093711324959224    1    1    4    1
 0.091066989138796225    1    1    4    2
 6.830937532083784e-18    1    1    4    3
 0.9824144565665609    1    1    4    4
 1.0387347604487753    1    1    5    5
-0.14519952751906601    1    1    6    1
 0.20882547509097188    1    1    6    2
 1.8717368669849989e-17    1    1    6    3
-0.10813778814913981    1    1    6    4
 0.40913987083468289    1    1    6    6
 5.2879239920460446e-17    1    1    7    1
-4.270504990486081e-17    1    1    7    2
-0.24406591948481465    1    1    7    3
-1.1708336129840355e-17    1    1    7    4
-2.528897169549672e-17    1    1    7    6
 0.39875636138173726    1    1    7    7
-2.7336507600846235e-17    1    1    8    1
-4.2321976117693269e-18    1    1    8    2
-0.16616280458682503    1    1    8    3
 1.9558962535573676e-17    1    1    8    4
 1.7592056694722735e-17    1    1    8    6
 0.1600868032949129    1    1    8    7
 0.55880126087295889    1    1    8    8
 0.1309516576420246    1    1    9    1
-0.17277523146018173    1    1    9    2
 9.4351203134897055e-18    1    1    9    3
 0.16995487854352462    1    1    9    4
-0.17229475393914839    1    1    9    6
 8.17498155272461e-17    1    1    9    7
-3.0938732106391427e-17    1    1    9    8
 0.58944701708196323    1    1    9    9
 0.094130190048463416    1    1   10    1
-0.02951826192192377    1    1   10    2
 2.2606253543235879e-17    1    1   10    3
-0.40172382496248643    1    1   10    4
 0.088298879055975499    1    1   10    6
 5.8085505858314383e-17    1    1   10    7
-3.4476585624398228e-17    1    1   10    8
-0.13390517790222822    1    1   10    9
 0.82642210873495625    1    1   10   10
-0.5112622538438123    1    1   11    5
 0.99709832127759279    1    1   11   11
 3.3217382273774528e-17    1    1   12    1
-0.3359880253031382    1    1   12    3
 5.1565755497174759e-18    1    1   12    4
 3.7905290406525082e-18    1    1   12    6
 0.22019120302219969    1    1   12    7
 0.12140092402481815    1    1   12    8
-3.6004045413004705e-17    1    1   12    9
-3.4266786522661322e-17    1    1   12   10
 0.77705535745596133    1    1   12   12
 0.1597851800960961    1    1   13    1
-0.15013493673395797    1    1   13    2
-0.093416730982299218    1    1   13    4
-0.06521274418942824    1    1   13    6
-9.2725097173875996e-18    1    1   13    7
-7.9024210936454926e-18    1    1   13    8
 0.0059094926473052438    1    1   13    9
 0.057012384777078887    1    1   13   10
 1.889893549324448e-17    1    1   13   12
 0.57237797696338932    1    1   13   13
 0.51552211420521465    1    1   14   14
-0.021669326424994834    1    1   15    5
 0.032248356442377141    1    1   15   11
 2.7835778699599956e-18    1    1   15   14
 0.51315294393695143    1    1   15   15
 0.31248114142683137    1    1   16    1
-0.28901191818024652    1    1   16    2
 2.9999413304189898e-17    1    1   16    3
-0.14381926167342601    1    1   16    4
-0.1268270929298915    1    1   16    6
-1.5334903361862374e-16    1    1   16    7
 2.0291063827222202e-16    1    1   16    8
 0.026681010847440376    1    1   16    9
 0.1132642168070003    1    1   16   10
 9.1825236257591714e-17    1    1   16   12
 0.10871364178307032    1    1   16   13
 0.77977555573914015    1    1   16   16
 4.946372941477223e-18    1    1   17    1
 1.1105762513418432e-17    1    1   17    2
 0.0079750432895500569    1    1   17    3
 4.459403931708326e-18    1    1   17    4
-3.0122477486729451e-18    1    1   17    6
-0.0078017665981795327    1    1   17    7
-0.012874205691342965    1    1   17    8
-2.0136598922589234e-17    1    1   17    9
-2.35083870658748e-17    1    1   17   10
-0.012651719067619398    1    1   17   12
 1.6317574436548264e-17    1    1   17   13
 3.7946361522873194e-17    1    1   17   16
 0.46383466963803816    1    1   17   17
 6.7170100715069928e-17    1    1   18    1
 1.6893654468236734e-17    1    1   18    2
 0.19102241007921927    1    1   18    3
 1.6313076516566076e-17    1    1   18    4
 5.0213640415875431e-17    1    1   18    6
-0.14262864812214895    1    1   18    7
-0.23792101056840001    1    1   18    8
-5.1906557242968051e-17    1    1   18    9
-6.0608467169316527e-17    1    1   18   10
-0.28087346637830113    1    1   18   12
-5.261205801533944e-17    1    1   18   13
 2.0652643090871346e-16    1    1   18   16
 0.019779920560961981    1    1   18   17
 0.80885896931581547    1    1   18   18
-0.21064754356438936    1    1   19    1
 0.18958082430468645    1    1   19    2
 3.3998640540617234e-17    1    1   19    3
-0.12140581048601846    1    1   19    4
 0.14887264282344551    1    1   19    6
-2.2055972505220605e-18    1    1   19    7
 1.5888347139191662e-16    1    1   19    8
-0.2736599724455856    1    1   19    9
 0.16794924559368377    1    1   19   10
 2.4901464997764704e-17    1    1   19   12
-0.05285471442163104    1    1   19   13
-0.069573332952220318    1    1   19   16
-1.4616920644121704e-16    1    1   19   17
 1.3132242194076639e-16    1    1   19   18
 0.82068876734905394    1    1   19   19
-0.0049221578783432609    1    1   20    5
 1.9659183017554229e-05    1    1   20   11
-0.15174731473544997    1    1   20   15
 0.88013765420868784    1    1   20   20
-6.9555328296283473e-18    1    1   21    5
 0.14863473728280319    1    1   21   14
 1.5662752582096898e-17    1    1   21   15
 8.6901910799187371e-18    1    1   21   20
 0.88538994165919638    1    1   21   21
 0.010419637364789637    1    1   22    1
-0.0087666036622877051    1    1   22    2
 3.2466562700853316e-18    1    1   22    3
-0.015730588104931699    1    1   22    4
-0.00025774081392187788    1    1   22    6
-7.4810847353031685e-17    1    1   22    7
 4.4517160725263605e-17    1    1   22    8
-0.03368866234821128    1    1   22    9
-0.017362170418715451    1    1   22   10
 1.4550221505822514e-17    1    1   22   12
 0.15484763317984801    1    1   22   13
-0.061334116527477646    1    1   22   16
 3.1988477449730264e-17    1    1   22   17
-1.7846993135609297e-17    1    1   22   18
-0.0062379182487847179    1    1   22   19
 0.87321919198040687    1    1   22   22
-0.049110371891155649    1    1   23    1
 0.052217709442963771    1    1   23    2
 1.0260760526583166e-16    1    1   23    3
-0.099395722907138426    1    1   23    4
 0.042549133644264228    1    1   23    6
-9.8573847266055462e-18    1    1   23    7
 5.1856741102172063e-18    1    1   23    8
-0.056343882554586111    1    1   23    9
 0.18740222966533404    1    1   23   10
 1.2605687723892339e-17    1    1   23   12
-0.018460744619677564    1    1   23   13
-0.10137328121776143    1    1   23   16
 4.3319206770782632e-17    1    1   23   17
 8.0731324233187883e-17    1    1   23   18
-0.045157359529921344    1    1   23   19
-0.0089072485160501466    1    1   23   22
 0.89084922067823435    1    1   23   23
-9.1469261369449671e-17    1    1   24    1
 5.1358134575218445e-17    1    1   24    2
-0.127452650383204    1    1   24    3
 8.4026696120865137e-18    1    1   24    4
 1.4721862485111344e-17    1    1   24    6
 0.054100163626006711    1    1   24    7
-0.0047145147468820774    1    1   24    8
 3.6407354639204116e-17    1    1   24    9
-2.6204144914297854e-17    1    1   24   10
 0.2289533095723004    1    1   24   12
-1.176976038930842e-17    1    1   24   13
 1.1554468893453332e-16    1    1   24   16
 0.017758156432994884    1    1   24   17
 0.034460687509249056    1    1   24   18
 3.0138190518519499e-18    1    1   24   19
 3.7817747988981943e-17    1    1   24   22
 4.1023897680825624e-17    1    1   24   23
 0.92241475383490756    1    1   24   24
-0.4309464335730821    2    1    1    1
 0.063720565678379429    2    1    2    1
-0.014138764891734245    2    1    2    2
-0.0063551652315004883    2    1    3    3
 0.017126689821308123    2    1    4    1
-0.007888677332239101    2    1    4    2
-0.012605427346370915    2    1    4    4
-0.011302972237360471    2    1    5    5
 0.022878724332583644    2    1    6    1
-0.0045313818411968814    2    1    6    2
-1.7567009167324916e-18    2    1    6    3
 0.00057281446805013971    2    1    6    4
-0.0018971757344643787    2    1    6    6
-4.2531608692988e-18    2    1    7    1
-1.201408931530681e-18    2    1    7    2
 0.0041337112049331286    2    1    7    3
 3.2137946943648625e-18    2    1    7    4
-0.0020920072228250604    2    1    7    7
 1.5804420096839426e-18    2    1    8    1
 1.386902691038181e-18    2    1    8    2
 0.0049779609176377505    2    1    8    3
-1.9249162735482386e-18    2    1    8    4
-6.5894037752203668e-18    2    1    8    6
-0.0024023187935144868    2    1    8    7
-0.001969068547435449    2    1    8    8
-0.021474547050278344    2    1    9    1
 0.0038879390822989537    2    1    9    2
-3.5127466151428937e-18    2    1    9    3
-0.0030152065193328071    2    1    9    4
 0.0023536148738980554    2    1    9    6
-4.5966394017980068e-18    2    1    9    7
-4.1697225110205625e-18    2    1    9    8
-0.0026147216036450779    2    1    9    9
-0.0099257770583218597    2    1   10    1
 0.0042391796224333506    2    1   10    2
 0.012443357229979688    2    1   10    4
-0.0011447757390491201    2    1   10    6
-5.2052736819547261e-18    2    1   10    7
 4.858127834405333e-18    2    1   10    8
 0.0042884668351309534    2    1   10    9
-0.012986651090674796    2    1   10   10
 0.014222347759876193    2    1   11    5
-0.01804055603897705    2    1   11   11
 3.3823640733600664e-18    2    1   12    1
 1.7863344121080134e-18    2    1   12    2
 0.0081329140673759015    2    1   12    3
-1.5861269672761265e-18    2    1   12    4
 2.5845309668906923e-18    2    1   12    6
-0.0047158815538883752    2    1   12    7
-0.0046462183209432092    2    1   12    8
 8.3429821121992541e-18    2    1   12    9
 2.4976018082608738e-18    2    1   12   10
-0.010598490641314214    2    1   12   12
-0.023037412765890677    2    1   13    1
 0.005970418965601472    2    1   13    2
 0.0028313087166847357    2    1   13    4
 0.0016746176276192903    2    1   13    6
-1.0233703321580816e-18    2    1   13    7
 2.752010653933491e-18    2    1   13    8
-0.00082723310102470989    2    1   13    9
-0.0041512577917945902    2    1   13   10
-0.002393885770205338    2    1   13   13
 0.00097462492514956774    2    1   14   14
 0.0018569349134985647    2    1   15    5
-0.0008699122182035463    2    1   15   11
 0.00050373696741514578    2    1   15   15
-0.045110011783542903    2    1   16    1
 0.011058130623346372    2    1   16    2
 0.0078483899330703162    2    1   16    4
 0.0027894412791524196    2    1   16    6
 9.9395510989536518e-18    2    1   16    7
-1.1616812576361252e-17    2    1   16    8
-0.0016732794252152764    2    1   16    9
-0.0069495148586244263    2    1   16   10
-5.6227108466632674e-18    2    1   16   12
-0.0051716102027254286    2    1   16   13
-0.0095337428065571592    2    1   16   16
-0.00017277070213517136    2    1   17    3
 4.7648195356700129e-18    2    1   17    6
 0.00028967490226554658    2    1   17    7
 0.00068991650991739298    2    1   17    8
-3.1931584889593897e-18    2    1   17   10
-0.00010467321201140452    2    1   17   12
 1.1500420445916546e-17    2    1   17   16
 0.00081037956672198983    2    1   17   17
 2.5097346806884828e-18    2    1   18    1
 2.7603140549849883e-18    2    1   18    2
-0.0098358373471002115    2    1   18    3
-1.1450748442796117e-18    2    1   18    4
 1.1903898642451041e-18    2    1   18    6
 0.0054907905592288192    2    1   18    7
 0.0051712987101746434    2    1   18    8
 1.0453666960224557e-17    2    1   18    9
 3.5418681773023246e-18    2    1   18   10
 0.011344418043053413    2    1   18   12
 1.5773812484104338e-18    2    1   18   13
-8.4437846481768317e-18    2    1   18   16
-0.00062107796422234427    2    1   18   17
-0.010608252804321405    2    1   18   18
 0.034728249385128585    2    1   19    1
-0.0079851936390258026    2    1   19    2
-3.1792182714063388e-18    2    1   19    3
 0.0046352677302979942    2    1   19    4
-0.0045989291060370731    2    1   19    6
 1.6531305671530268e-18    2    1   19    7
-1.0459168395646894e-17    2    1   19    8
 0.0058920603539465172    2    1   19    9
-0.0061358469523084373    2    1   19   10
 3.2813083862602807e-18    2    1   19   12
 0.0013368000111449094    2    1   19   13
 0.0034009633816339574    2    1   19   16
 6.3588564087006329e-18    2    1   19   17
-0.0089561811624089306    2    1   19   19
-0.0032434431165389234    2    1   20    5
 0.0022615146357057598    2    1   20   11
 0.00086469335507032474    2    1   20   15
-0.002037948794212804    2    1   20   20
-0.00055539255700709175    2    1   21   14
-0.0022150159382499385    2    1   21   21
-0.0013211093361242753    2    1   22    1
 0.00088099267000569506    2    1   22    2
-1.3686757037541091e-18    2    1   22    3
-0.0027147252398103923    2    1   22    4
 0.0010359721814828661    2    1   22    6
 2.305930388502925e-18    2    1   22    7
-6.3752026825658221e-18    2    1   22    8
-0.0015547354007598541    2    1   22    9
 0.001611265851208998    2    1   22   10
-0.00068222951186733955    2    1   22   13
 0.00038507808409096728    2    1   22   16
 3.1041096050266089e-18    2    1   22   17
-1.2830160990983577e-18    2    1   22   18
 0.0011049448516434013    2    1   22   19
-0.0020499619916638134    2    1   22   22
 0.0098315391446840966    2    1   23    1
-0.0020586473293128147    2    1   23    2
-1.0012809932936828e-18    2    1   23    3
 0.0035339298920000007    2    1   23    4
-0.0018035569724163627    2    1   23    6
 1.2179521396358619e-17    2    1   23    7
-1.4830049989836704e-17    2    1   23    8
 0.0021485531436802978    2    1   23    9
-0.0047336385435413544    2    1   23   10
-6.2754533982145599e-18    2    1   23   12
-0.00020292586542274821    2    1   23   13
 0.00028628715403839118    2    1   23   16
 1.0855647990997189e-17    2    1   23   17
-1.0092687014041617e-17    2    1   23   18
-0.0033091682066215583    2    1   23   19
 0.00057979644945216292    2    1   23   22
-0.0045403092889403926    2    1   23   23
-2.8044283168783002e-18    2    1   24    1
-1.7663490438861556e-18    2    1   24    2
 0.0023328434244391399    2    1   24    3
-6.5151211849796338e-18    2    1   24    6
-0.0012474852983843847    2    1   24    7
-0.00077253656840477257    2    1   24    8
-1.5378967456513932e-17    2    1   24    9
-1.1041354331258276e-18    2    1   24   10
-0.0039938496718394355    2    1   24   12
-0.00033433909420875366    2    1   24   17
 0.0036863469019592977    2    1   24   18
-8.1174287684173066e-18    2    1   24   19
-2.96320507094946e-18    2    1   24   22
-0.0045625427541010049    2    1   24   24
 1.0451964644564598    2    2    1    1
-0.01413876489173427    2    2    2    1
 0.75344344470360491    2    2    2    2
-2.9239495874156891e-18    2    2    3    1
 1.5880530714182243e-17    2    2    3    2
 0.67880325984689227    2    2    3    3
-0.014677547048237144    2    2    4    1
-0.017631633762082512    2    2    4    2
 1.868092078518665e-17    2    2    4    3
 0.67945189619290736    2    2    4    4
 0.71370443073810819    2    2    5    5
-0.001782776712048726    2    2    6    1
 0.10863277313190733    2    2    6    2
 2.5043052611278674e-17    2    2    6    3
-0.058729308731415082    2    2    6    4
 0.3666293179297398    2    2    6    6
-1.7408584615033692e-17    2    2    7    1
-7.0770804723237068e-17    2    2    7    2
-0.12456522824042916    2    2    7    3
-7.6698855452526684e-17    2    2    7    4
-5.0282572448616762e-17    2    2    7    6
 0.34560286007986851    2    2    7    7
 1.0184330823745157e-17    2    2    8    1
 6.4570452261898786e-18    2    2    8    2
-0.032680887960738481    2    2    8    3
 3.246351377513045e-17    2    2    8    4
 4.7443475596119966e-17    2    2    8    6
 0.10031037578148712    2    2    8    7
 0.51112832163134403    2    2    8    8
-0.00080254623381601289    2    2    9    1
-0.071308903579470326    2    2    9    2
 3.0525086752031607e-17    2    2    9    3
 0.066631828342658392    2    2    9    4
-0.11293489355284968    2    2    9    6
 4.7610197697488419e-17    2    2    9    7
 4.4836199015401983e-17    2    2    9    8
 0.5234084080432575    2    2    9    9
 0.013134565890565492    2    2   10    1
 0.0052966272561050321    2    2   10    2
-1.6289337178410287e-17    2    2   10    3
-0.14488381154609917    2    2   10    4
 0.048120142224648103    2    2   10    6
 7.7144678643407644e-18    2    2   10    7
-9.5299212132717625e-17    2    2   10    8
-0.027857413185740122    2    2   10    9
 0.56944189294322833    2    2   10   10
-0.18846820647914767    2    2   11    5
 0.61707946374782197    2    2   11   11
 2.1948180926212684e-17    2    2   12    2
-0.13803172350057155    2    2   12    3
-2.7427632294393001e-17    2    2   12    4
 2.1068503835817399e-17    2    2   12    6
 0.11096897784201705    2    2   12    7
 0.027813083045259125    2    2   12    8
 1.1317357375984047e-16    2    2   12    9
 8.2147100791080827e-17    2    2   12   10
 0.54252991512272286    2    2   12   12
 0.0066057896547011899    2    2   13    1
-0.046254836014674963    2    2   13    2
 2.2720100837222423e-17    2    2   13    3
-0.059101012918301034    2    2   13    4
-0.034755700069378094    2    2   13    6
-1.1377269086941704e-17    2    2   13    7
 3.3756094368003247e-17    2    2   13    8
-0.0040801025160038702    2    2   13    9
-0.01678503447878708    2    2   13   10
-1.7095942014509558e-17    2    2   13   12
 0.5199861204831332    2    2   13   13
 2.2745684423264175e-17    2    2   14    5
-1.0010405907526815e-17    2    2   14   11
 0.5266700770533399    2    2   14   14
 0.018256758229113074    2    2   15    5
 0.024528927359589833    2    2   15   11
 9.1437766244872449e-18    2    2   15   14
 0.51226580596645499    2    2   15   15
 0.011699879602087512    2    2   16    1
-0.10026412636880894    2    2   16    2
 4.5020152941143442e-17    2    2   16    3
-0.028844633053329863    2    2   16    4
-0.07242826635512005    2    2   16    6
 8.2534784936940846e-17    2    2   16    7
 1.3514405293436745e-16    2    2   16    8
-0.0078251678413142536    2    2   16    9
 0.013256999023251385    2    2   16   10
-2.483790650406133e-16    2    2   16   12
 0.020270792279887422    2    2   16   13
 0.58840712298427467    2    2   16   16
 2.1180305743283126e-18    2    2   17    1
 3.3685677887328653e-17    2    2   17    2
 0.00065401724034259306    2    2   17    3
-3.161080488405712e-17    2    2   17    4
-1.2413596624307265e-17    2    2   17    6
 0.00078985317280009463    2    2   17    7
 0.0075340890605392133    2    2   17    8
 6.6191709094174685e-17    2    2   17    9
 6.1464299858388159e-17    2    2   17   10
-0.018297514224550289    2    2   17   12
 6.4089635952707686e-17    2    2   17   13
-1.4412880155204025e-16    2    2   17   16
 0.48655931778961675    2    2   17   17
 1.7801254288282009e-17    2    2   18    1
-5.8140550278528771e-17    2    2   18    2
 0.0052670919074681213    2    2   18    3
 1.2069253315438218e-17    2    2   18    4
-9.1625877576228097e-17    2    2   18    6
-0.031391337252089598    2    2   18    7
-0.12140821958872286    2    2   18    8
-4.6305498956606817e-17    2    2   18    9
-4.0910569933736594e-17    2    2   18   10
-0.073108927867595805    2    2   18   12
-3.8463648331626851e-17    2    2   18   13
-2.0418181669913065e-16    2    2   18   16
 0.004592050319491274    2    2   18   17
 0.60594023638344974    2    2   18   18
 5.8441731628935433e-05    2    2   19    1
 0.036093652505310221    2    2   19    2
-1.8810686667494651e-17    2    2   19    3
-0.011203377216409172    2    2   19    4
 0.051892728899155575    2    2   19    6
-1.2010875337140721e-16    2    2   19    7
 1.2125753629407477e-16    2    2   19    8
-0.13432266775876431    2    2   19    9
 0.043543750468241167    2    2   19   10
 9.2106319457028411e-17    2    2   19   12
-0.031195347209217208    2    2   19   13
-0.016798569237553868    2    2   19   16
 1.475654048250459e-17    2    2   19   17
 1.0197416664983433e-16    2    2   19   18
 0.62716355930847778    2    2   19   19
-0.03784443429681688    2    2   20    5
 0.019584117721864983    2    2   20   11
-1.6658398226956609e-17    2    2   20   14
-0.089169728685340982    2    2   20   15
 0.70455807437146956    2    2   20   20
-9.9958864226437255e-18    2    2   21    5
 1.1626407100125156e-17    2    2   21   11
 0.090505907325784396    2    2   21   14
 2.69376147556593e-18    2    2   21   15
 1.4341827187295836e-17    2    2   21   20
 0.70528049215893784    2    2   21   21
 0.00076089983460000043    2    2   22    1
 0.0035976011527659225    2    2   22    2
-1.083416912724996e-17    2    2   22    3
-0.037978060248271481    2    2   22    4
 0.011017545030242744    2    2   22    6
 3.7391388929527133e-17    2    2   22    7
-2.7828409414700772e-17    2    2   22    8
-0.043495694043675627    2    2   22    9
 0.0017296620881459611    2    2   22   10
-1.6707808424252642e-17    2    2   22   12
 0.094707144772583018    2    2   22   13
-0.034650758929137035    2    2   22   16
-9.9517574948814618e-17    2    2   22   17
-2.3777005824658071e-17    2    2   22   18
 0.0038251668038824407    2    2   22   19
 0.7016127943634527    2    2   22   22
 0.0030856034684029372    2    2   23    1
 0.01124603311028357    2    2   23    2
-3.1255289705613645e-17    2    2   23    3
-0.018709780665759571    2    2   23    4
 0.0078361704649644801    2    2   23    6
 7.1267568576357211e-17    2    2   23    7
-7.7984307630505155e-17    2    2   23    8
-0.0326821179566383    2    2   23    9
 0.074836498641208254    2    2   23   10
-6.6171800243037008e-17    2    2   23   12
-0.020719066370521698    2    2   23   13
-0.063247137650155438    2    2   23   16
 2.3245612103099972e-17    2    2   23   17
 6.5320129880714378e-17    2    2   23   18
-0.049417150014584126    2    2   23   19
-0.0040223764252585526    2    2   23   22
 0.6887132819741949    2    2   23   23
-1.806781782137934e-18    2    2   24    1
 5.9973358961105948e-17    2    2   24    2
-0.048975203767803031    2    2   24    3
 1.1708967728935511e-16    2    2   24    4
 2.1882393504454422e-16    2    2   24    6
 0.020439390904604317    2    2   24    7
 0.00049729674146490905    2    2   24    8
-4.7842452106324198e-17    2    2   24    9
-1.9497576192301393e-16    2    2   24   10
 0.1187570826182834    2    2   24   12
 8.265247983638567e-17    2    2   24   13
 9.6100038231601177e-16    2    2   24   16
 0.0087032162232141257    2    2   24   17
 0.053741344775653524    2    2   24   18
 2.6717368917794184e-16    2    2   24   19
 1.888297531146584e-16    2    2   24   22
 7.4755336839087825e-16    2    2   24   23
 0.70076425953041732    2    2   24   24
-1.3279894883891507e-17    3    1    1    1
 0.019208964270084911    3    1    3    1
 0.023142739168547383    3    1    3    2
 1.0974978124053838e-18    3    1    3    3
 0.0031210811500228678    3    1    4    3
 2.0222212927388614e-18    3    1    5    5
 1.7107389049409631e-18    3    1    6    1
 0.0043767713003203378    3    1    6    3
-6.9538035657611874e-18    3    1    6    6
-0.010836639286709828    3    1    7    1
-0.0097786349659980138    3    1    7    2
-2.6263438163326098e-18    3    1    7    3
-0.0039003597865370603    3    1    7    4
-0.0048432333932660549    3    1    7    6
 6.5348188836979749e-18    3    1    7    7
-0.010331558019343344    3    1    8    1
-0.0073056074981712616    3    1    8    2
-0.0089191207937098331    3    1    8    4
-0.0017047327461112264    3    1    8    6
-3.7358597684617174e-18    3    1    8    7
-1.4412362823658595e-18    3    1    8    8
 1.7089326194099645e-18    3    1    9    1
-1.3332060733498355e-18    3    1    9    2
 0.00074046460681765041    3    1    9    3
-2.5590496383760906e-18    3    1    9    6
 0.0019336855017226577    3    1    9    7
 0.0044340394926309541    3    1    9    8
 0.0016441254920009517    3    1   10    3
 2.7404396484753113e-18    3    1   10    6
 0.00045244557727541632    3    1   10    7
 0.0019626282508615304    3    1   10    8
-7.4423604489008074e-18    3    1   10   10
-0.023620552816632362    3    1   12    1
-0.013182809044197785    3    1   12    2
-0.0014046126631762554    3    1   12    4
-0.0066330142333673953    3    1   12    6
-8.2296366303370251e-18    3    1   12    7
 4.7394660222841902e-18    3    1   12    8
 0.0049743270039459995    3    1   12    9
 0.002743194169050554    3    1   12   10
 1.1983271615734075e-17    3    1   12   12
 2.4398493586882187e-18    3    1   13    1
-1.8503687562208743e-18    3    1   13    2
-0.0093691185425401422    3    1   13    3
-3.2084631047493709e-18    3    1   13    6
 0.0041987054791920051    3    1   13    7
 0.0055085792552673901    3    1   13    8
-1.8329032146498945e-18    3    1   13    9
-2.2219258509265143e-18    3    1   13   10
 0.0064042090612398597    3    1   13   12
-5.3525796863256767e-18    3    1   13   13
 0.0071823621995605359    3    1   14    5
-0.00071081208612016309    3    1   14   11
-3.5570785891953877e-18    3    1   14   14
-1.9416103469715581e-18    3    1   15    5
-1.8736171878595617e-18    3    1   15   11
 0.0063039089364093403    3    1   15   14
-1.6155838557705275e-18    3    1   15   15
 1.0284466850127911e-17    3    1   16    1
-4.6390476580359738e-18    3    1   16    2
-0.01037064816610626    3    1   16    3
-4.0294186618986729e-18    3    1   16    4
-1.7082741195847023e-17    3    1   16    6
 0.005590975955108957    3    1   16    7
 0.0036780517137317368    3    1   16    8
-2.8170653157842543e-18    3    1   16    9
 1.2511759549359805e-17    3    1   16   10
 0.014102713634031637    3    1   16   12
-4.7183884116657653e-18    3    1   16   13
-3.623827886820926e-17    3    1   16   16
 0.00039963116949197255    3    1   17    1
 0.00020244056803487689    3    1   17    2
 0.0012975785901376154    3    1   17    4
 0.00026133627020290663    3    1   17    6
 1.2247671671489827e-18    3    1   17    8
-0.0031752616012150725    3    1   17    9
-0.0030123202257818418    3    1   17   10
-2.5749259516819287e-18    3    1   17   12
 0.0054356211102117918    3    1   17   13
-0.00087898704013511259    3    1   17   16
-3.1484985429384773e-18    3    1   17   17
 0.023356477012630689    3    1   18    1
 0.0058514476465178402    3    1   18    2
 3.372244728982198e-18    3    1   18    3
 0.010373848213808002    3    1   18    4
 0.00092174686907023665    3    1   18    6
-2.2387618640975597e-18    3    1   18    7
 1.2036853236889694e-18    3    1   18    8
-0.00019305124372898395    3    1   18    9
-0.0069248247012650664    3    1   18   10
-5.9338329416777114e-18    3    1   18   12
-0.004198187530935967    3    1   18   13
-0.0088889831242575691    3    1   18   16
-1.3244779136775632e-18    3    1   18   17
 2.4806808772178791e-18    3    1   18   18
-1.3233941341106416e-18    3    1   19    1
-0.0014473213176524951    3    1   19    3
 1.4880137029838041e-18    3    1   19    6
 0.00010438497122022413    3    1   19    7
-0.00106039180717976    3    1   19    8
-1.1376388026567789e-18    3    1   19    9
-0.002898766418316049    3    1   19   12
 1.6857118990292245e-18    3    1   19   13
 4.9513869467854562e-18    3    1   19   16
 0.0013042154395702203    3    1   19   17
 0.0076521253963894023    3    1   19   18
 1.356645254638891e-18    3    1   19   19
-1.0669289586393515e-18    3    1   20    5
 0.00079748252548593186    3    1   20   14
-1.1235257325075448e-18    3    1   20   15
 0.017265559523256525    3    1   21    5
-0.011959118992018855    3    1   21   11
-0.0016895426889375509    3    1   21   15
 0.00086850836683816004    3    1   21   20
 1.4315034146314903e-18    3    1   22    1
-0.010739433482473757    3    1   22    3
-1.7411424364330844e-18    3    1   22    4
-3.0036077536160745e-18    3    1   22    6
 0.0058969546500393186    3    1   22    7
 0.005331036176091662    3    1   22    8
 2.6194027042619633e-18    3    1   22    9
 5.0052308839460281e-18    3    1   22   10
 0.0077999947208098443    3    1   22   12
 4.2101765253542291e-18    3    1   22   13
-9.1184047231593493e-18    3    1   22   16
-0.00047517596961449274    3    1   22   17
-0.0048623043490464797    3    1   22   18
-5.3594300394651505e-18    3    1   22   22
 4.2931349341507116e-18    3    1   23    1
 0.011968191137558624    3    1   23    3
-1.7434554646982851e-18    3    1   23    4
-6.4400077109658744e-18    3    1   23    6
-0.0070359722215765103    3    1   23    7
-0.0086170435745269811    3    1   23    8
-1.4658317167323758e-18    3    1   23    9
 8.9895496889207294e-18    3    1   23   10
-0.0086278640545859979    3    1   23   12
-2.3326337128125406e-17    3    1   23   16
 0.00043014861418960715    3    1   23   17
 0.0082385989311587401    3    1   23   18
 1.0519052104208037e-18    3    1   23   19
-7.6652089771218798e-18    3    1   23   22
-9.5624445259244991e-18    3    1   23   23
-0.012798770756678918    3    1   24    1
-0.0057323665597059942    3    1   24    2
-1.9538761391691879e-18    3    1   24    3
 0.012871510566869939    3    1   24    4
-0.0057771556657821507    3    1   24    6
-1.5911904791913768e-18    3    1   24    8
 0.0093432629780999844    3    1   24    9
-0.0094273622949432555    3    1   24   10
 2.6398545638273929e-18    3    1   24   12
 0.0021790002681896046    3    1   24   13
 0.0031786625389854822    3    1   24   16